LAMMPS data file via write_data, version 4 Feb 2025, timestep = 800000, units = lj

3100 atoms
4 atom types
2100 bonds
1 bond types
1250 angles
2 angle types

-10.410592 10.410592 xlo xhi
-10.410592 10.410592 ylo yhi
-10.410592 10.410592 zlo zhi
-7.105427357601002e-15 0 0 xy xz yz

Masses

1 1
2 1
3 0.1
4 0.1

Bond Coeffs # harmonic/omp

1 100 0.45

Angle Coeffs # harmonic/omp

1 100 180
2 100 109.471

Atoms # full

1309 403 4 0 -9.653036569225145 -9.950877013941762 -9.780321466468012 4 0 1
34 7 3 0 -9.637725470451844 -9.55363476412091 -9.770955720841089 4 0 1
33 7 3 0 -9.63404636672122 -9.061003228181068 -10.3465633600437 4 0 1
31 7 1 0 -9.447035075622471 -9.184292456473633 -9.92516539912819 4 0 1
32 7 3 0 -9.011946202187875 -9.242720091916661 -9.96069351947576 4 0 1
2202 701 4 0 -8.76615046709367 -8.963096154441368 -10.130015481602152 4 0 1
35 7 3 0 -9.529558052403829 -8.842236464683898 -9.630239552847893 4 0 1
2201 701 2 0 -8.401546788952803 -8.834480306275289 -9.945199957066729 4 0 1
2203 701 4 0 -8.0119774712751 -8.696001357404276 -9.73253254016745 4 0 1
2109 670 4 0 -7.779778388023352 -8.992504342549536 -9.546192747299564 4 0 1
794 232 2 0 -3.662587305140806 -8.901560937867243 -9.655763696752604 12 1 1
796 232 4 0 -3.272002849316718 -8.749456037817806 -9.772362301413507 12 1 1
370 90 4 0 -1.6933630141856195 -8.871960487840198 -9.715487814358319 4 0 1
368 90 2 0 -1.2576864073111516 -8.81974500089713 -9.674163025339132 4 0 1
369 90 4 0 -0.7853619400796834 -8.77095562686382 -9.622335708086762 4 0 1
289 63 4 0 -0.4121892157835241 -8.872985712267496 -9.700548142393897 4 0 1
287 63 2 0 -0.053793099953393764 -9.134052331859447 -9.832256281208805 4 0 1
2956 952 4 0 -9.701560440166753 -8.532863565832402 -9.80656460482626 13 1 1
2954 952 2 0 -9.787410899415597 -8.073359153929697 -9.893626381673222 13 1 1
1095 332 4 0 -2.914018235552672 -8.609086807449026 -9.708844473767803 12 1 0
1094 332 2 0 -2.452966042818881 -8.620232973432628 -9.767316985626804 12 1 0
1096 332 4 0 -1.9903727206620854 -8.622394102814651 -9.822872608550753 12 1 0
688 196 4 0 -9.992073612592828 -7.271618831758282 -9.990843800333234 4 0 1
686 196 2 0 -10.254240730294113 -7.019450047419926 -10.241885266573744 4 0 1
2955 952 4 0 -9.860991025386507 -7.653268059080527 -9.964556868646659 13 1 1
1010 304 2 0 -6.468770697451613 -3.854223559165268 -9.719234269446625 4 0 0
1011 304 4 0 -6.066710190456693 -4.009679992064244 -9.904020595766625 4 0 0
2938 946 4 0 -5.7442263979672585 -3.8080178638189333 -10.031096915894642 6 0 1
2936 946 2 0 -5.335953928441089 -3.9907406250043564 -9.978379083220386 6 0 1
1789 563 4 0 -4.6561692567162 -3.933441655129214 -9.769340044521202 6 0 0
2937 946 4 0 -4.939668861134446 -4.17280788724518 -9.931599420925657 6 0 1
1787 563 2 0 -4.213362127188996 -3.862615019944524 -9.760342279287567 6 0 0
1788 563 4 0 -3.770996849259231 -3.7924006493369706 -9.748378814540791 6 0 0
1730 544 2 0 -6.739906614848728 -2.834186347599779 -10.29034817302974 6 0 0
1732 544 4 0 -6.472088400432609 -2.7761023332358334 -9.931744387076652 6 0 0
2622 841 4 0 -6.302748180919162 -2.5431933602351275 -9.625942738462557 7 0 0
946 282 4 0 -9.642632281741907 -0.22023340763889543 -10.391104005487684 8 0 0
944 282 2 0 -10.102413138839957 -0.28589343235185716 -10.327277288171233 8 0 0
1307 403 2 0 -9.683076463268254 -10.140311974876118 -9.382621968669428 4 0 1
1308 403 4 0 -9.707997750718917 -10.331902377813266 -8.976375275864372 4 0 1
2108 670 2 0 -7.326272382986753 -8.994770160419826 -9.511808609168666 4 0 1
2110 670 4 0 -6.8928253777519 -8.998374481686662 -9.477817774875415 4 0 1
2903 935 2 0 -6.074661658399837 -9.219101860060768 -9.420354165189055 12 1 1
2905 935 4 0 -6.474016591914948 -9.002817587423165 -9.423978773688512 12 1 1
942 281 4 0 -5.295361741341605 -9.289439072968959 -9.323703005348744 12 1 1
2904 935 4 0 -5.6719875115321345 -9.42940178462503 -9.420936460876074 12 1 1
941 281 2 0 -4.862149963500988 -9.237868117627494 -9.43266416811164 12 1 1
943 281 4 0 -4.440543087991534 -9.201361351166003 -9.541282737763767 12 1 1
795 232 4 0 -4.070821048282662 -9.067517704176808 -9.53786270374099 12 1 1
1350 417 4 0 -9.678206384206698 -5.505268302108884 -9.022012317178154 5 0 1
2079 660 4 0 -10.10985805979056 -5.54405701254333 -8.999030960386104 5 0 1
1349 417 2 0 -9.250426655280599 -5.439239559355642 -9.119313797227278 5 0 1
1351 417 4 0 -8.809137335773544 -5.367429474226463 -9.226250883883578 5 0 1
523 141 4 0 -8.55430414692296 -5.3163941252837335 -8.911977931145103 -3 -1 0
521 141 2 0 -8.122524133396235 -5.151097902315329 -8.9089229558048 -3 -1 0
522 141 4 0 -7.689585735459632 -4.9805670242646505 -8.901960928546721 -3 -1 0
309 70 4 0 -7.334218228949553 -5.128659193231514 -8.767736457256401 5 0 0
308 70 2 0 -6.89136716164374 -5.006325864945735 -8.715848816200893 5 0 0
841 247 4 0 -7.889951929478549 -3.651796635085522 -8.681383887643644 4 0 1
551 151 2 0 -7.197219688370881 -3.553190478648137 -8.983658347651614 4 0 0
552 151 4 0 -7.49650516458523 -3.6971404210320475 -8.693466607482737 4 0 0
1012 304 4 0 -6.873645381563285 -3.697461025699539 -9.535034965440845 4 0 0
188 38 3 0 -3.267886268072929 -4.0573851510852075 -8.724379246894717 5 0 0
553 151 4 0 -6.9196939829689565 -3.4132056187434383 -9.253117654240297 4 0 0
2621 841 2 0 -6.425818661135157 -2.171944377805337 -9.412057990746877 7 0 0
2623 841 4 0 -6.557403412531956 -1.804093410205109 -9.196266438237277 7 0 0
1642 514 4 0 -6.6359906267713225 -1.7310098354472032 -8.811027125255398 14 1 1
930 277 4 0 -10.039332151169605 -10.006617112322047 -8.081945526125732 4 0 1
204 41 3 0 -9.930885213757698 -10.376938151897564 -8.18065799584178 12 1 1
1316 406 2 0 -6.1712294727906825 -10.18596845377887 -8.506695852745104 4 0 0
1317 406 4 0 -5.905176721592447 -9.956193015899881 -8.233054374617746 4 0 0
1444 448 4 0 -5.554641360786352 -10.146194950506262 -8.148966371237284 13 1 1
1442 448 2 0 -5.193753081586681 -10.328458830782202 -7.977964675834308 13 1 1
403 101 4 0 -10.00231025124572 -7.885391421040053 -8.006065473380845 5 0 0
1264 388 4 0 -9.646386415127912 -7.9785560086652305 -7.992449925270519 4 0 0
401 101 2 0 -10.284256119611365 -7.661275776631962 -8.258506884639582 5 0 0
924 275 4 0 -0.7135213627080255 -6.526721641879281 -8.025296424212371 10 1 1
2217 706 4 0 -0.3175428214497078 -6.437840876900675 -8.078667073143482 3 0 0
2216 706 2 0 -0.002261745467802001 -6.619674023748259 -8.351781064935542 3 0 0
727 209 4 0 -3.1140216728313526 -5.912008341370774 -7.884187052301317 3 0 1
1369 423 4 0 -2.88944399025747 -5.7422074370742475 -8.17303089804796 11 1 0
1368 423 4 0 -2.057996225864432 -5.6682154631239765 -7.922368887819608 11 1 0
1367 423 2 0 -2.483286631822522 -5.7068773866136 -8.05100933002198 11 1 0
2913 938 4 0 -1.8654063721061807 -5.321187139437807 -7.895831360554772 4 0 1
310 70 4 0 -6.46830026631811 -4.887853806014941 -8.673652868651846 5 0 0
1720 540 4 0 -6.102060372261038 -4.820016840862569 -8.53828420462173 5 0 0
1718 540 2 0 -5.659881520350072 -4.72945536442436 -8.409551459780074 5 0 0
1719 540 4 0 -5.247259395242928 -4.644434525706497 -8.27316399669897 5 0 0
1746 549 4 0 -4.949476423908372 -4.401151862679285 -8.39739168691447 5 0 0
1745 549 2 0 -4.5382174287020085 -4.377879928240582 -8.287261152673187 5 0 0
1747 549 4 0 -4.1007929389709945 -4.349883539982599 -8.167596705506686 5 0 0
187 38 3 0 -3.192098927205609 -4.721048457248856 -8.405868952735748 5 0 0
2914 938 4 0 -1.2299086816061617 -4.662774661671912 -8.14434913194739 4 0 1
2912 938 2 0 -1.5424396752174339 -4.987723145148565 -8.020051974680264 4 0 1
1338 413 4 0 -0.8874380759538578 -4.894403998187644 -8.203961361543477 11 1 1
1337 413 2 0 -0.4329397481883479 -4.935959022590608 -8.125617510577282 11 1 1
2919 940 4 0 -9.907174458300872 -4.316808555905354 -7.836602162706399 13 1 0
2918 940 2 0 -10.084464479224042 -3.9180548591013515 -7.948996858820196 13 1 0
2920 940 4 0 -10.267982288171261 -3.5207552747109006 -8.058685250016335 13 1 0
1896 599 4 0 -8.669964440374692 -4.231396161668922 -7.860490687352048 5 0 0
839 247 2 0 -8.211321865558894 -3.857417626879613 -8.443134458835448 4 0 1
840 247 4 0 -8.535430978298981 -4.064697489139035 -8.21802044652706 4 0 1
189 38 3 0 -3.7189343269710804 -4.261104195040722 -8.175241666566263 5 0 0
186 38 1 0 -3.29962857921552 -4.284835784496875 -8.334342617904648 5 0 0
190 38 3 0 -2.9986113935993908 -4.101174796477113 -8.026734497457761 5 0 0
2650 850 4 0 -2.6149856159008715 -4.027828043443266 -8.077066513243734 5 0 0
2648 850 2 0 -2.19614117556441 -3.9255137697344358 -8.02277576397168 5 0 0
2649 850 4 0 -1.7503210623632235 -3.8222368195241927 -7.963381414944392 5 0 0
120 24 3 0 -1.3888005716936789 -3.7221620620020595 -8.10263955385407 -3 -1 0
116 24 1 0 -1.0748283814654478 -3.559794148846315 -7.839013542588695 -3 -1 0
118 24 3 0 -0.7101330083586781 -3.779109877537582 -7.8904978490941 -3 -1 0
999 300 4 0 -0.3366453259279236 -3.9096280231408835 -7.915422780866338 13 1 0
1478 460 2 0 -2.7509598049488 -2.8482480346440564 -8.160924611647474 6 0 1
1479 460 4 0 -3.071799709904411 -3.0689227501548997 -7.917607454198658 6 0 1
1480 460 4 0 -2.4082867573990008 -2.6204998919201765 -8.416446443341567 6 0 1
117 24 3 0 -1.0044661768098084 -3.1381712212040824 -7.924226499520086 -3 -1 0
3049 983 4 0 -0.7658221808776666 -2.8788713064605407 -8.099593630653578 5 0 0
1640 514 2 0 -6.465465257228901 -1.8425220824003024 -8.39551287223159 14 1 1
1641 514 4 0 -6.300689763856681 -1.9588429641558083 -7.991533327573139 14 1 1
1570 490 4 0 -2.1569283368499033 -2.3317343335301413 -8.32726230239038 6 0 1
1569 490 4 0 -1.283134533496444 -2.454772005812192 -8.576693449893442 6 0 1
1568 490 2 0 -1.7332392443626627 -2.3896524068668956 -8.442153069229887 6 0 1
3047 983 2 0 -0.532419987658546 -2.57124888328378 -7.836494670073598 5 0 0
929 277 2 0 -9.757000143669272 -9.86793454093572 -7.74156522404857 4 0 1
931 277 4 0 -9.482616402054997 -9.73292403912062 -7.410727749240667 4 0 1
717 206 4 0 -2.065283656843505 -10.019277935152665 -7.303370037174364 4 0 1
716 206 2 0 -1.7958240374457688 -10.338712701209067 -7.563473827192481 4 0 1
1648 516 4 0 -2.090003274169538 -9.736705233621677 -7.018650043363642 4 0 1
550 150 4 0 -9.18254367998591 -9.503898268353334 -7.268361174228987 3 0 0
548 150 2 0 -8.814531497899399 -9.21104283929842 -7.18848442113355 3 0 0
549 150 4 0 -8.469612887632051 -8.935686088380072 -7.111258484624596 3 0 0
1262 388 2 0 -9.486154811873933 -8.019787670680135 -7.57793773926278 4 0 0
1263 388 4 0 -9.325349210642322 -8.064494348673309 -7.157235065369692 4 0 0
1762 554 4 0 -8.946686465169119 -8.224758370665393 -7.126764212282035 5 0 0
1760 554 2 0 -8.51226161188064 -8.107920084030198 -7.0710048756247685 5 0 0
1761 554 4 0 -8.088499938803832 -7.977034172583614 -7.011389446534051 5 0 0
2980 960 4 0 -7.705537806505502 -8.078005529263818 -7.026407512099755 14 1 1
721 207 4 0 -1.2514697819317462 -8.28399104188263 -7.446277613701996 2 0 0
719 207 2 0 -1.362925963852689 -7.843097244804842 -7.515035184832135 2 0 0
2064 655 4 0 -1.1991956763993876 -8.473854931698513 -7.118854179086056 3 0 1
2978 960 2 0 -7.4835143910947455 -7.657821878075242 -6.994915240026007 14 1 1
2979 960 4 0 -7.291646070306428 -7.290776456223405 -6.971214493404538 14 1 1
925 275 4 0 -1.146221906388675 -7.115127202804917 -7.559045543163669 10 1 1
720 207 4 0 -1.4712011858375877 -7.394523285584377 -7.579669925471971 2 0 0
512 138 2 0 -4.42244592489894 -6.108029354388759 -7.087661014882007 4 0 0
726 209 4 0 -3.8574733421677463 -6.0766242434075535 -7.3644617789736735 3 0 1
923 275 2 0 -0.9340427248748213 -6.816226270841865 -7.795911941274261 10 1 1
514 138 4 0 -4.24301982792234 -5.965917626801389 -7.453172050336279 4 0 0
725 209 2 0 -3.470411000123108 -5.992457070989902 -7.628444357329613 3 0 1
1897 599 4 0 -9.520542029829823 -4.3379911279551955 -7.643173414726954 5 0 0
1895 599 2 0 -9.078235679361574 -4.285276945099268 -7.755307803153361 5 0 0
2398 766 4 0 -1.1151469795499231 -3.7954671648548963 -7.06003729904599 6 0 1
119 24 3 0 -1.2189861608554846 -3.606391824274219 -7.398606116625779 -3 -1 0
1559 487 2 0 -6.426297059757184 -1.941643811562253 -7.290457085409064 14 1 1
3048 983 4 0 -0.31120574970443293 -2.28768018257802 -7.594293535795039 5 0 0
1560 487 4 0 -6.384196124885526 -1.7348082727587997 -7.686577995362914 14 1 1
2886 929 4 0 -9.853852088261606 -0.30983586528409646 -7.480940635859705 10 0 1
2885 929 2 0 -10.2801740441356 -0.235283631709029 -7.534594731065479 10 0 1
2192 698 2 0 -9.899972153459656 -10.063618582745129 -6.273606902083363 4 0 1
2193 698 4 0 -10.20229715067028 -9.732563699763721 -6.315759646295714 4 0 1
2194 698 4 0 -9.599086311966648 -10.403043390475169 -6.228487793709574 4 0 1
2181 694 4 0 -9.196567959013347 -10.369979945420427 -6.346117703848738 5 0 0
1646 516 2 0 -1.885633304313954 -9.709373539193551 -6.638097486912599 4 0 1
1647 516 4 0 -1.666331221100771 -9.672039030549685 -6.230581206068417 4 0 1
900 267 4 0 -10.268968739692797 -9.349314783186852 -6.37887408952175 5 0 0
2973 958 4 0 -8.335867363273023 -9.003500110058306 -6.723536585361504 12 1 1
2972 958 2 0 -8.050884444441753 -9.138226660453471 -6.372244627083007 12 1 1
1617 506 4 0 -0.3645960605201104 -8.179047078786843 -6.4142296863887935 3 0 0
2065 655 4 0 -0.47098020375287675 -8.526914518895195 -6.550204709129588 3 0 1
2063 655 2 0 -0.8174103052335333 -8.500704338471579 -6.823722579480027 3 0 1
446 116 2 0 -7.8532936178951545 -6.97401794094462 -6.10723918981084 4 0 0
3040 980 4 0 -6.98592771497624 -7.065803295979321 -6.849994062100208 5 0 0
799 233 4 0 -7.423879309624734 -7.704715035199973 -6.122517507592061 4 0 0
2105 669 2 0 -10.253734843472454 -6.724068428101609 -6.4935120862958495 12 1 0
2106 669 4 0 -9.842534966915867 -6.825814513601931 -6.366830239758282 12 1 0
1948 616 4 0 -9.46570100329684 -6.809463484732612 -6.175975278453877 3 0 0
448 116 4 0 -8.11635492868874 -6.612888162189267 -6.154590126369635 4 0 0
3038 980 2 0 -6.571308829297196 -6.852223770671794 -6.722623014441789 5 0 0
3039 980 4 0 -6.167469721210639 -6.643857260298954 -6.6079782040944 5 0 0
1426 442 4 0 -5.854460457214495 -6.39761232316037 -6.622519594159327 12 1 1
1424 442 2 0 -5.409314090470203 -6.35387034959962 -6.579946349263034 12 1 1
513 138 4 0 -4.606367082294106 -6.2409007268137495 -6.708288463116959 4 0 0
1425 442 4 0 -4.958095628707457 -6.320755053547348 -6.54384164548269 12 1 1
3094 998 4 0 -2.0428213493811285 -4.975312991366477 -6.151709285174962 13 1 1
2397 766 4 0 -1.5617702671881908 -4.234282475132802 -6.382461003181398 6 0 1
2396 766 2 0 -1.341327751480808 -4.015192005444864 -6.71960222679299 6 0 1
324 75 4 0 -9.655941048634844 -1.8073210710036207 -6.855952419553901 5 0 1
2730 877 4 0 -8.78452131029809 -1.995480335444567 -6.127995894891603 6 0 0
2729 877 2 0 -9.10768973954593 -2.0546972013724982 -6.377866140437822 6 0 0
2731 877 4 0 -9.460917610611636 -2.119153005565776 -6.646047273491101 6 0 0
64 13 3 0 -8.44837181512541 -1.792570950339334 -6.197001202782572 6 0 0
2015 639 2 0 -7.147692883198502 -2.041149344641484 -6.449915625090252 6 0 0
65 13 3 0 -7.712210638642327 -1.7577907763263543 -6.235071375912292 6 0 0
2017 639 4 0 -7.489394513969402 -2.0334115933924277 -6.132856055446474 6 0 0
2016 639 4 0 -6.816473255513593 -2.0415507194892886 -6.758422119798456 6 0 0
1561 487 4 0 -6.462731056182115 -2.1534613913526623 -6.890208046738096 14 1 1
1186 362 4 0 -1.3683062519781366 -2.3277302169494654 -6.392907760954392 6 0 0
1184 362 2 0 -1.4233909092560175 -1.88691739271205 -6.510177226053953 6 0 0
323 75 2 0 -10.134827761104065 -1.7344297154416086 -6.788475387599381 5 0 1
1185 362 4 0 -1.4777221985087063 -1.4550030035280042 -6.623096123088105 6 0 0
278 60 2 0 -10.377734095613004 -0.44287972153175303 -6.185940135123336 8 0 0
2860 920 4 0 -3.5040845037747097 -0.39683511064485977 -6.18842371366216 9 0 0
217 44 3 0 -3.2008274253481073 -0.16736863998777274 -6.290763198720536 9 0 1
2502 801 4 0 -6.1321903085350264 -9.744861898847113 -5.330635230862333 12 1 0
613 171 4 0 -5.750689466500279 -9.644359282089981 -5.392555982864139 13 1 0
611 171 2 0 -5.314602255052399 -9.5947119462012 -5.501887975275897 13 1 0
612 171 4 0 -4.882854890113682 -9.55493159837426 -5.6048436206902315 13 1 0
429 110 4 0 -4.610861058191024 -9.81591327587141 -5.630694961693918 5 0 0
428 110 2 0 -4.211754753657853 -10.007496964989624 -5.518507181973966 5 0 0
430 110 4 0 -3.7886453343596047 -10.187238715372303 -5.400048394591498 5 0 0
1919 607 2 0 -2.994441177046073 -10.2524183355208 -5.300517487508495 -2 -1 0
223 45 3 0 -1.7973072870836209 -9.997448109627626 -6.033183713890485 13 1 0
221 45 1 0 -1.75347281738218 -10.329406338398737 -5.696904972410694 13 1 0
1920 607 4 0 -2.549652755255609 -10.300642104624412 -5.407870241674475 -2 -1 0
224 45 3 0 -2.1323740729450993 -10.346254856065622 -5.4763283150331015 13 1 0
225 45 3 0 -1.4345261714396393 -10.226023564257606 -5.427020179805292 13 1 0
1588 496 4 0 -1.052642307290629 -10.265977656515435 -5.3983769402795865 12 1 1
1587 496 4 0 -0.16708011957551783 -10.232072335193033 -5.284662644805937 12 1 1
1586 496 2 0 -0.5982619695768125 -10.250181550926188 -5.3427916959685255 12 1 1
174 35 3 0 -7.986397982284375 -9.201080591560206 -5.27070976365726 4 0 1
2974 958 4 0 -7.786922410940317 -9.268718228129535 -6.0505524165759255 12 1 1
172 35 3 0 -7.53480714904619 -9.043012088319188 -5.788989295077795 4 0 1
171 35 1 0 -7.5758082699884195 -9.020213822615082 -5.392392726234028 4 0 1
2501 801 2 0 -6.512252621305212 -9.47717279124879 -5.349889270433805 12 1 0
2503 801 4 0 -6.8846118519665715 -9.21027381024137 -5.357148260079581 12 1 0
1518 473 4 0 -8.823553287597958 -8.511765971995505 -5.774670601452418 11 1 0
1517 473 2 0 -8.969475817272947 -8.144964468755589 -5.589793102365352 11 1 0
173 35 3 0 -7.558670817740365 -8.620159121863214 -5.297812355422961 4 0 1
797 233 2 0 -7.4969370738929335 -7.953770940997373 -5.77537265727641 4 0 0
798 233 4 0 -7.598819001976439 -8.23208681402964 -5.418982789886714 4 0 0
1519 473 4 0 -9.126525614175732 -7.76841831763592 -5.414219579115535 11 1 0
1947 616 4 0 -9.347284260632101 -7.476990239293382 -5.582839792539019 3 0 0
1946 616 2 0 -9.405853498999903 -7.143907387854535 -5.876005372321592 3 0 0
447 116 4 0 -7.598867024840931 -7.314853258817271 -6.067668085708732 4 0 0
2992 964 4 0 -3.5027250660330953 -7.080237062360699 -5.603671125339963 12 1 0
2990 964 2 0 -3.3435324948669374 -7.410997502404386 -5.350299497562418 12 1 0
2797 899 4 0 -8.413705598813321 -6.325639854813066 -6.069381588843707 13 1 0
2795 899 2 0 -8.617293150052186 -6.128971337698364 -5.704865988751971 13 1 0
985 295 4 0 -3.3495195868800787 -6.700117662881105 -5.565651449749928 3 0 0
983 295 2 0 -3.144220841548564 -6.325229785795241 -5.40122395423634 3 0 0
2421 774 4 0 -0.6101523332631746 -6.225821992242108 -5.68458920242846 3 0 0
2420 774 2 0 -0.15695202005422892 -6.309091773165039 -5.636720634083721 3 0 0
2796 899 4 0 -8.817938820491804 -5.933524373460023 -5.355061221958044 13 1 0
984 295 4 0 -2.9326266357926576 -5.958737499227638 -5.214103662572952 3 0 0
1215 372 4 0 -2.5505474805666752 -5.884159582063893 -5.322098712406395 3 0 0
1214 372 2 0 -2.137644989387894 -5.922895982412512 -5.48948242658445 3 0 0
1216 372 4 0 -1.734060068919673 -5.960006164494196 -5.654940627001982 3 0 0
316 72 4 0 -1.602662759288057 -6.04726660737767 -6.012656070557028 2 0 0
314 72 2 0 -1.150621727189355 -6.058274791130604 -6.036082581138156 2 0 0
315 72 4 0 -0.6815260938130443 -6.065521637917127 -6.056119848605356 2 0 0
3093 998 4 0 -2.089845778108396 -4.616243442210617 -5.340650708794783 13 1 1
3092 998 2 0 -2.0645882093215207 -4.802642366304408 -5.753920637853819 13 1 1
1494 465 4 0 -2.618460695866901 -2.926235818434492 -5.632130487426984 6 0 1
1511 471 2 0 -1.9215981955112191 -2.7194018610623294 -6.007300010567369 6 0 1
1512 471 4 0 -2.3364410994601386 -2.851059384586506 -5.9493009724539885 6 0 1
723 208 4 0 -8.013077224055598 -2.150424102949456 -5.243103996000865 -2 -1 0
63 13 3 0 -8.02907809372892 -1.9724967926512278 -5.604864487653686 6 0 0
1493 465 2 0 -2.794028349340077 -2.590954084460005 -5.373974089028429 6 0 1
2557 819 4 0 -3.0927688765486883 -1.917247995285532 -5.274311347093205 6 0 0
1513 471 4 0 -1.4813472302198623 -2.581226433595787 -6.06784333426551 6 0 1
2828 910 2 0 -10.369239932117498 -1.6756107274204552 -5.371086864604704 7 0 0
61 13 1 0 -8.065938357374108 -1.6970334079681848 -5.968037177173787 6 0 0
62 13 3 0 -8.075297951866396 -1.2664593073708303 -5.830002462760269 6 0 0
838 246 4 0 -7.792644073123656 -1.0430491246770561 -5.6571863236395625 6 0 0
836 246 2 0 -7.369564099949841 -0.9447882359913873 -5.57270627707282 6 0 0
2859 920 4 0 -3.059855786984185 -0.914545636595653 -5.6212919081900115 9 0 0
2555 819 2 0 -3.0496986040090412 -1.5157936918063637 -5.2592106839097825 6 0 0
2556 819 4 0 -3.009026119638494 -1.0674227229993924 -5.2380373638529765 6 0 0
280 60 4 0 -10.073514794749373 -0.24922189412750662 -5.928444766319493 8 0 0
2875 925 4 0 -9.704194653160314 -0.22438191594842394 -5.824797695451034 17 1 1
837 246 4 0 -6.937230767750929 -0.8477417438481414 -5.4930320530604195 6 0 0
2858 920 2 0 -3.2901548512221623 -0.6568982165841675 -5.899442530013149 9 0 0
735 212 4 0 -1.8669500701103594 -0.16901957786373956 -5.737952640745783 8 0 0
2430 777 4 0 -1.4679882083403282 -0.2500379002725559 -5.721573083135201 0 -1 0
2429 777 2 0 -1.118404256357481 -0.006135452696829802 -5.577617364209793 0 -1 0
1921 607 4 0 -3.4379162090806084 -10.204227980129415 -5.201015633987121 -2 -1 0
2284 728 4 0 -10.130086349687595 -9.292875491069763 -4.762023581386253 4 0 0
2282 728 2 0 -9.686117501282297 -9.339392162515795 -4.67785603692939 4 0 0
337 79 4 0 -10.38938523210667 -9.009132971837088 -4.629028098636473 3 0 0
1419 440 4 0 -8.915628483297228 -9.525729172242226 -4.455794994874244 12 1 0
2283 728 4 0 -9.263805613988394 -9.39154181474382 -4.600058654584506 4 0 0
1418 440 2 0 -8.545395367870173 -9.502392717618092 -4.732599377153998 12 1 0
1420 440 4 0 -8.155020879336467 -9.47216275789578 -5.00753027818011 12 1 0
175 35 3 0 -7.249402358001268 -9.255817373013398 -5.187249487130284 4 0 1
2130 677 4 0 -0.5352321042412385 -8.729686960400437 -4.98373057236237 3 0 0
1780 560 4 0 -7.384991555695265 -8.235260925455407 -5.0986648577782585 4 0 0
1778 560 2 0 -7.435659030357293 -8.061310677323878 -4.649237625034926 4 0 0
3057 986 4 0 -2.9836524711142927 -8.038534203833914 -4.932516706394499 11 1 0
2721 874 4 0 -1.8379713150782564 -8.509454352285834 -5.007835484965172 11 1 0
3058 986 4 0 -2.1479040800575095 -8.2903690084117 -4.913063998043682 11 1 0
3056 986 2 0 -2.5723520244450846 -8.162636689838248 -4.9195591094395015 11 1 0
2722 874 4 0 -0.9289915827404709 -8.65503715594513 -5.038338905886968 11 1 0
2720 874 2 0 -1.3820553953774652 -8.579960695631188 -5.024194818973636 11 1 0
2129 677 2 0 -0.09667253735904247 -8.55652853771951 -4.943186738228578 3 0 0
2991 964 4 0 -3.175892346435748 -7.7441320914146905 -5.092881025870752 12 1 0
405 102 4 0 -9.759807023717027 -5.393424473873674 -4.453590210580778 4 0 0
1708 536 4 0 -8.89107461631706 -6.051377700833899 -4.926799841850593 5 0 0
1706 536 2 0 -9.146307903368426 -5.792967232294484 -4.668196976738876 5 0 0
1707 536 4 0 -9.389564664257886 -5.539158187430288 -4.408665059972035 5 0 0
2883 928 4 0 -5.6713231636560275 -5.487302807861693 -4.407197992605137 14 1 0
406 102 4 0 -10.112619610517356 -4.569221437224174 -4.419018581079232 4 0 0
404 102 2 0 -9.936865673969347 -4.97466041584519 -4.438305668258593 4 0 0
2206 702 4 0 -10.199735836940912 -4.223538241978612 -4.586781920181453 5 0 0
2908 936 4 0 -2.07072802185008 -4.246135671393972 -5.186739007380454 5 0 0
2906 936 2 0 -2.0621030262026476 -4.113665445633429 -4.778871686416271 5 0 0
2907 936 4 0 -2.0437099205426748 -3.980514332888485 -4.348352205339141 5 0 0
724 208 4 0 -8.404316256478722 -1.9616139614321906 -4.458217848422081 -2 -1 0
722 208 2 0 -8.213254688474052 -2.0544085913611507 -4.842903751446861 -2 -1 0
1495 465 4 0 -2.9694839946451737 -2.261008174698242 -5.117000105440888 6 0 1
2830 910 4 0 -10.013817150148583 -1.584475178781437 -5.044113898619686 7 0 0
1005 302 4 0 -9.714577875402629 -1.384098939594704 -4.8600951066379 14 1 1
1004 302 2 0 -9.438286733602023 -1.0352024769854662 -4.810255536133944 14 1 1
1006 302 4 0 -9.152961491878843 -0.6799976445199292 -4.765596737892073 14 1 1
2187 696 4 0 -8.934397012925754 -0.34991319187013836 -4.596916429448774 6 0 1
1779 560 4 0 -7.4837427668207575 -7.869596998676329 -4.234886859993013 4 0 0
1855 585 4 0 -7.330297814066143 -7.848064406787798 -3.8326560812425576 4 0 0
1941 614 4 0 -5.948684988341299 -7.859374867232117 -3.9967988518064814 -4 -1 0
1940 614 2 0 -6.149698276337313 -7.48249234278655 -4.098380511106547 -4 -1 0
1942 614 4 0 -6.350081016310072 -7.091166361245422 -4.2081331363992085 -4 -1 0
569 157 2 0 -1.8183285534735187 -7.0596397715967525 -3.661693382436141 4 0 -1
712 204 4 0 -2.5848578387329573 -7.345978141610481 -3.477505694583913 3 0 1
570 157 4 0 -1.426144519727865 -6.944270535716947 -3.8746190582994604 4 0 -1
624 175 4 0 -0.2172031064952087 -6.993940099348618 -3.991050965174244 5 0 1
48 10 3 0 -8.845391349007262 -6.529972927228782 -3.5318136480136992 4 0 0
1752 551 4 0 -8.54935271278707 -6.741798671810219 -3.7766503513785032 4 0 0
1751 551 2 0 -8.162808144517145 -6.5845731084511305 -3.9843065917791645 4 0 0
1753 551 4 0 -7.804179717007072 -6.4310975405322415 -4.178095718746075 4 0 0
2651 851 2 0 -7.053107405355524 -6.71671159392098 -4.047352679423722 13 1 -1
2652 851 4 0 -7.473506505614964 -6.622808685042456 -4.036611300068568 13 1 -1
2653 851 4 0 -6.598413033203828 -6.818973414076137 -4.065630455561889 13 1 -1
2668 856 4 0 -1.3064269706587606 -6.5604038526851145 -3.989661618165475 5 0 0
2666 856 2 0 -0.8659508102828415 -6.61121517754863 -4.008369908657104 5 0 0
2667 856 4 0 -0.43289228305076577 -6.665527500830241 -4.032986479283317 5 0 0
2882 928 2 0 -5.556816074621687 -5.457484600524597 -3.9898378274986275 14 1 0
2884 928 4 0 -5.4557398876215695 -5.430763002669212 -3.568261753480069 14 1 0
2177 693 2 0 -2.0022727250724106 -4.284252476675854 -3.627531434617554 5 0 1
2179 693 4 0 -2.128828359050006 -4.2592950117744195 -4.074815611673663 5 0 1
301 67 4 0 -8.675668329742448 -2.126280316583607 -4.210142605727575 -2 -1 0
299 67 2 0 -8.965406291868765 -1.8459132115918848 -4.017126002857421 -2 -1 0
1500 467 4 0 -9.256725879928664 -1.155782629354329 -3.827494027940044 6 0 0
300 67 4 0 -9.267007883510512 -1.566157254299858 -3.809383725687958 -2 -1 0
1499 467 2 0 -9.31142230757493 -0.7851687041590196 -3.557201273506421 6 0 0
2186 696 2 0 -8.613561575837155 -0.13741016501824 -4.336818225386048 6 0 1
978 293 4 0 -8.134645494194201 -0.02332188071215313 -3.752119727019748 6 0 0
2001 634 4 0 -10.189779113553497 -10.293258166847524 -2.8355871204921854 4 0 0
1956 619 4 0 -9.826232114174298 -10.307190403096198 -2.6817534687351747 4 0 0
750 217 4 0 -3.4900817473863857 -7.9246198627083215 -2.7041371813959483 4 0 1
2727 876 4 0 -9.973271088469705 -7.624674634586574 -3.126897264138478 4 0 -1
2726 876 2 0 -9.646235521660419 -7.354087860544633 -3.086243873996991 4 0 -1
2389 763 4 0 -10.334929180465533 -7.588649790579834 -3.298705050819838 4 0 0
2728 876 4 0 -9.306624549505681 -7.066315076680077 -3.0474405773411064 4 0 -1
49 10 3 0 -8.948648197508781 -6.975964454923177 -2.9164708210758654 4 0 0
1853 585 2 0 -7.352255524967253 -7.668709300822323 -3.4077734803034847 4 0 0
1854 585 4 0 -7.385293416376079 -7.49548383007833 -2.9975741502833984 4 0 0
2289 730 4 0 -7.23861928801966 -7.3413097274889925 -2.6725115711867176 4 0 0
711 204 4 0 -3.213805350723381 -7.7534982001058435 -2.933683093530248 3 0 1
710 204 2 0 -2.897757509323868 -7.548183689556394 -3.2048925348246886 3 0 1
571 157 4 0 -2.197951902632383 -7.161850801659151 -3.4570858810599727 4 0 -1
46 10 1 0 -8.789572402033558 -6.551827216942083 -3.061177952292023 4 0 0
50 10 3 0 -9.03266610439563 -6.2186308870183495 -2.857102520395486 4 0 0
47 10 3 0 -8.333295616468115 -6.512693692288483 -2.956979665899744 4 0 0
715 205 4 0 -8.001974417056609 -6.235931056467551 -2.936036333689356 4 0 0
713 205 2 0 -7.6118006105108265 -6.19528916660054 -2.70322812336469 4 0 0
2683 861 4 0 -6.845467110970452 -6.165073430154913 -2.6433981233778328 13 1 0
3078 993 4 0 -9.789621652388579 -5.428024405508993 -2.8354969547120845 12 1 0
3077 993 2 0 -9.510467477287238 -5.722382434552764 -2.979077515112074 12 1 0
3079 993 4 0 -9.225060752621163 -6.040948338362228 -3.1217502542809203 12 1 0
2681 861 2 0 -6.417057279070933 -5.9567484346921695 -2.7223585705209707 13 1 0
146 30 1 0 -5.364464736348699 -5.2827739045498845 -2.8420019744707465 5 0 0
2682 861 4 0 -6.012042647192651 -5.76573371351134 -2.795367555913634 13 1 0
147 30 3 0 -5.6516835014043885 -5.6341415688716205 -2.7430729366165263 5 0 0
149 30 3 0 -4.9253674402276655 -5.415368502270773 -2.7771091005900654 5 0 0
1380 427 4 0 -4.578106702861778 -5.449282852206785 -2.605901874453953 4 0 0
1379 427 2 0 -4.1086578389772885 -5.3768358633353275 -2.622225106507128 4 0 0
1381 427 4 0 -3.6216993035394545 -5.295796664441908 -2.643934836916902 4 0 0
150 30 3 0 -5.424027425136563 -5.157664303319809 -3.278824983054765 5 0 0
2178 693 4 0 -1.882536133910504 -4.30824652229825 -3.1942871905464862 5 0 1
2455 785 4 0 -1.7424672207665957 -4.027515162948488 -2.97558279177062 12 1 -1
2897 933 2 0 -9.86019082342149 -2.830476341429538 -3.0415846792548624 14 1 0
2898 933 4 0 -10.297142543760671 -2.9210551470108372 -3.019606716325044 14 1 0
2899 933 4 0 -9.406100857780896 -2.7458467199503076 -3.070662354797732 14 1 0
2605 835 4 0 -9.019999973219695 -2.619586838124664 -3.009342095007934 7 0 0
2603 835 2 0 -8.569440100159948 -2.4566309695093356 -3.0118951734787833 7 0 0
2604 835 4 0 -8.127747376812382 -2.2906040696305325 -3.010248055437647 7 0 0
1909 603 4 0 -7.749457311667205 -2.26595959790537 -3.1829171043545514 7 0 0
1907 603 2 0 -7.271047576126811 -2.174647377017637 -3.2203328357522416 7 0 0
1908 603 4 0 -6.800922758641324 -2.0970527417578673 -3.248587335587022 7 0 0