LAMMPS data file via write_data, version 4 Feb 2025, timestep = 1000000, units = lj

79 atoms
4 atom types
54 bonds
1 bond types

-3.045986 3.045986 xlo xhi
-3.045986 3.045986 ylo yhi
-3.045986 3.045986 zlo zhi

Masses

1 1
2 1
3 0.1
4 0.1

Bond Coeffs # zero

1 0

Atoms # bond

25 7 4 -0.10015513402512433 -2.933680426506714 -1.5596671303247203 -1 0 1
14 4 2 -0.12789386009976947 -0.592433729212308 -2.9327613927272473 0 0 2
12 3 4 -0.5719757066243629 -1.951023392238909 2.5479996155189477 0 0 1
69 22 4 -0.6038203756427547 -2.247901744085162 2.28383347482784 1 1 1
68 22 2 -0.3725554747957201 -2.5883149394848846 1.9998697411682131 1 1 1
70 22 4 -0.14129057394868555 -2.928728134884607 1.7159060075085861 1 1 1
11 3 2 -0.5983517906831965 -1.4669278780822494 2.6702936683714245 0 0 1
13 3 4 -0.6247278747420301 -0.9828323639255903 2.7925877212239016 0 0 1
16 4 4 -0.42098644190526974 -0.6414980399736218 2.7571043627303977 0 0 1
62 20 2 -0.3464604849835933 2.765967014334243 -2.3271897712218 0 -1 1
63 20 4 -0.43879593301647957 2.5394765970528916 -2.763281798110892 0 -1 1
64 20 4 -0.25412503695070665 2.9924574316155943 -1.8910977443327075 0 -1 1
36 11 4 -1.171258123030571 0.8329993876844564 -0.6765567603589423 0 0 1
35 11 2 -1.3339596567155447 1.218346585800308 -0.950483297665462 0 0 1
37 11 4 -1.4966611904005185 1.6036937839161598 -1.224409834971982 0 0 1
1 1 1 -2.1726847754244365 2.1293419447024484 -1.0811542831767826 1 0 1
73 23 4 -2.9598523440666433 2.0709919022916066 -1.0253917508604444 1 0 0
3 1 3 -1.8553012397650126 1.7954555128178402 -1.1367199370973846 1 0 1
2 1 3 -2.0855812568691703 2.468450538773046 -1.3795136947640358 1 0 1
5 1 3 -2.5890073204645825 1.9627830118079368 -1.1607385803985029 1 0 1
4 1 3 -2.149934352550753 2.2993525028463213 -0.6500176129913144 1 0 1
30 9 4 -2.0442196627890077 0.8502726211670196 2.0004516124333427 0 -1 0
60 19 4 -2.2194071751728917 1.1430967859814427 1.8137756282300184 0 -1 0
59 19 2 -2.678385812019781 1.331029931327492 1.8771770777283845 0 -1 0
29 9 2 -1.6116659975557506 0.6774424533026615 1.81871812688565 0 -1 0
46 14 4 -0.7964931964512926 0.38241162857547395 1.6678323832839628 0 -1 0
31 9 4 -1.1791123323224932 0.5046122854383037 1.6369846413379576 0 -1 0
44 14 2 -0.43714791689376153 0.3079301270812984 2.007425486857733 0 -1 0
45 14 4 -0.07780263733623044 0.23344862558712276 2.3470185904315026 0 -1 0
47 15 2 -0.4876616798159703 2.376565454842034 2.5914412790677677 0 -1 0
48 15 4 -0.7444213064882913 2.3850000133414184 2.1624851597107178 0 -1 0
67 21 4 -0.10908849920856528 2.793494752014527 1.8109945159244911 1 -1 1
49 15 4 -0.23090205314364914 2.3681308963426493 3.020397398424818 0 -1 0
42 13 4 0.6998115504271651 -1.9984961712216625 -1.5438008431873125 0 0 1
41 13 2 0.8990760444686702 -1.5491785942922565 -1.635492590234657 0 0 1
23 7 2 0.3014325647766208 -2.6449338302693963 -1.486504822184187 -1 0 1
43 13 4 1.0983405385101754 -1.09986101736285 -1.7271843372820022 0 0 1
9 2 3 1.155292648960598 -0.9266294901153421 -2.092139077733139 0 0 1
6 2 1 0.9125739811279575 -0.6695870347746568 -2.3926666545677127 0 0 1
8 2 3 0.9835072484270325 -0.8222166968805645 -2.825070005428682 0 0 1
10 2 3 0.4689832813687428 -0.689761961064486 -2.2915713359995027 0 0 1
7 2 3 1.0548427240110945 -0.233091907020823 -2.363829035981992 0 0 1
78 25 4 1.2689279065376984 -1.1181377250339133 -2.881482129929383 0 0 2
15 4 4 0.16519872170573008 -0.5433694184509938 -2.5306551481848927 0 0 2
75 24 4 1.0941303185846147 -0.15183153519238402 -1.9616977850062787 1 0 2
55 17 4 1.5181337430897122 -2.9355744544661446 -1.6766258317414569 0 0 0
24 7 4 0.7030202635783653 -2.3561872340320784 -1.4133425140436535 -1 0 1
57 18 4 2.6494818693845956 -2.80426391929128 -0.9284514567135944 0 0 0
54 17 4 2.2758081706397673 -2.739570269890904 -1.054121356684718 0 0 0
53 17 2 1.8969709568647397 -2.8375723621785243 -1.3653735942130876 0 0 0
56 18 2 2.5655411950680374 -3.0193400566623496 -0.4849469828592283 0 0 0
21 6 4 1.9022924505035226 -0.8877880037325122 2.0542320629189232 0 0 1
79 25 4 1.8935973492531628 -1.0257671044863046 2.435083037629193 0 0 1
20 6 2 2.0660684526608075 -0.42683495179670167 1.950792684399911 0 0 1
77 25 2 1.5812626278954307 -1.0719524147601092 2.8227864538499055 0 0 1
76 24 4 1.4078336060372598 0.7251305475276811 -1.5976541709807996 1 0 2
74 24 2 1.2509819623109373 0.2866495061676484 -1.7796759779935394 1 0 2
34 10 4 1.6759296593136876 0.7647751499418922 -1.291970809725423 -2 0 1
32 10 2 1.7503633584066929 1.258289284131288 -1.3220278188052452 -2 0 1
71 23 2 2.662828854251525 1.9905480403384794 -1.1780185130315095 0 0 0
58 18 4 2.4816005207514786 2.857555805966581 -0.041442509004862405 0 -1 0
33 10 4 1.8247970574996981 1.7518034183206836 -1.3520848278850672 -2 0 1
72 23 4 2.193538052569693 1.9101041783853523 -1.330645275202575 0 0 0
51 16 4 2.540004692400534 2.2976650356549064 1.2025773284645807 0 -1 -1
52 16 4 2.6134827575677617 2.581828135811702 0.24662110224450745 0 -1 -1
50 16 2 2.5767437249841483 2.439746585733304 0.724599215354544 0 -1 -1
40 12 4 2.213577723052285 2.1810457469901796 1.4232661750166637 -1 -1 0
26 8 2 1.1695544545743184 1.5205600469152551 1.9287472228772282 0 -1 1
39 12 4 2.563625897354975 1.5262693938114558 2.0931424344743346 -1 -1 0
27 8 4 1.5584409416556537 1.206303616564481 1.9319403637561778 0 -1 1
18 5 4 1.7950412371073556 0.99033271182011 1.6900077989419358 0 0 0
17 5 2 2.1521753073429504 0.6444169641858173 1.742899683153809 0 0 0
19 5 4 2.5093093775785453 0.29850121655152495 1.7957915673656826 0 0 0
28 8 4 0.780667967492983 1.834816477266029 1.9255540819982786 0 -1 1
65 21 2 0.28738710703094084 2.488967925426942 1.8025977578853056 1 -1 1
66 21 4 0.6838627132704462 2.1844410988393568 1.7942009998461201 1 -1 1
61 19 4 2.9546075511333285 1.5189630766735411 1.9405785272267506 -1 -1 0
38 12 2 2.38860181020363 1.8536575704008178 1.758204304745499 -1 -1 0
22 6 4 2.2298444548180925 0.03411810013910871 1.8473533058808989 0 0 1

Velocities

25 -0.05941952350464608 -0.013053085444309283 0.22102833257726542
14 0.12593836793758922 0.039481106109681675 0.1881049292252515
12 -0.5353661347961438 -0.23578549165167445 0.23118155620953212
69 0.25154242072989685 -0.2301076493390496 0.8929941520215527
68 0.19450938670604143 0.23163041390608127 0.2930179990466727
70 0.1374763526821861 0.6933684771512121 -0.3069581539282074
11 -0.19522565353847904 -0.13908461842332254 -0.07824383396099469
13 0.14491482771918557 -0.04238374519497057 -0.3876692241315213
16 -0.09532763018874618 1.13705348215764 0.2154603624334252
62 0.34863995841651146 -0.06286330400991974 0.14762001996216545
63 0.24823662864122067 -0.45431632915821807 0.3721853396936052
64 0.44904328819180234 0.3285897211383788 -0.07694529976927422
36 -0.1274070230220593 0.17120200309044303 0.09332554236051471
35 -0.3649736882528133 0.21523057824889338 0.2963681150396775
37 -0.6025403534835674 0.2592591534073438 0.4994106877188404
1 0.0771896027430472 -0.058361133250427875 0.005480435513605931
73 0.19452073838143982 -0.21836131899238959 -0.10953647801509542
3 -0.7262910377350129 -0.8128534146142569 -0.050251668426056044
2 0.664554487336224 -0.3916285301585881 -0.20182755575159356
5 -0.35705582684456616 0.8633637928631702 0.3480686501994045
4 0.7459640877755205 0.08152051793998832 -0.08496944414476873
30 0.6210573538310851 0.8143686166401272 0.5506367269697059
60 0.568305453770934 0.6125276069069758 0.36477982278613774
59 0.2509276557761473 -0.07313405018338384 0.0996269380816257
29 -0.0811057550047337 -0.14180597669512324 -0.21128896012887818
46 0.4931633228188886 -0.01895646154902092 -0.14388970917695693
31 -0.7832688638405517 -1.097980570030374 -0.9732146472274624
44 0.24493236650863617 -0.38632604904998996 0.03820581413905081
45 -0.0032985898016164583 -0.7536956365509593 0.22030133745505853
47 -0.18318372600301092 -0.014956269123814316 0.10949237482744811
48 -0.00806781710655402 -0.9741401545888576 -0.01418691448023228
67 -0.4312021854125166 0.047260471558425665 -0.13522112647954457
49 -0.35829963489946803 0.9442276163412294 0.2331716641351283
42 0.3463675589116324 -0.20174703425106105 0.024380038332606734
41 0.17002301685885016 -0.12150170281104565 0.03437474301331329
23 -0.07290483051196428 0.016976613166841358 0.17653219878874277
43 -0.006321525193932226 -0.041256371371030165 0.044369447694019855
9 -0.12320654722887009 0.05862093086691822 0.4685421023425126
6 -0.0454801596097274 -0.15253037510227452 0.22516844537746208
8 -0.27457700724303236 -0.73050987806158 0.39160154115939083
10 -0.028368283767965338 0.2612399202305046 0.38282613332812565
7 0.24798749301879314 -0.20990724900335242 -0.3541633071074957
78 -0.605930206446558 -0.5421394237924104 -0.6644916182004421
15 0.3472043660639248 -1.0580912699382756 0.1607494960170784
75 0.35917242183793124 -0.1784034006566474 -0.3919016338178951
55 0.11016269269566967 -0.02299821186349911 -0.5327528577950242
24 -0.08639013751928246 0.04700631177799198 0.13203606500022014
57 -0.7823102171391605 0.39458554803415424 0.0584771167147487
54 -0.5757592199339714 -0.24405727810123173 0.3717129204875733
53 -0.23279826361915074 -0.13352774498236536 -0.08051996865372558
56 0.39671389535848917 0.1365724495891553 0.15650457978859028
21 0.6595180076494459 -0.14070877066452617 0.32349997236612515
79 0.7616615657464452 0.3416023641501342 0.5425193706082815
20 0.18288000524350553 -0.012585766875434338 0.1397867950192478
77 0.07786567964994345 -0.10026852982113812 -0.06098612379608021
76 -0.6016992240444994 -0.02458610165332542 0.06556183710943264
74 -0.12126340110328389 -0.10149475115498639 -0.1631698983542313
34 0.25716074992585036 -0.4130235058559293 -0.3708682659863612
32 0.27586318177470975 -0.3889394588148844 0.07088922134450737
71 0.15335298156078692 -0.027727852912380075 -0.08343124380751424
58 1.5757380078561385 -0.12144064885584402 0.2545320428624327
33 0.29456561362356914 -0.3648554117738398 0.5126467086753759
72 0.11218522474013412 0.1629056131676294 -0.057326009599933045
51 -0.8280425998108042 -0.4361538537443859 -0.40112907407928244
52 0.8453085143390108 0.4670980027803272 -0.004013139716193714
50 0.00863295726410351 0.015472074517970686 -0.20257110689773777
40 0.6974819483354404 0.03513188791093305 -0.23840118944995325
26 0.10930425021784684 -0.1433082474561586 -0.4567650557002563
39 -0.18843691894647163 0.3317763755641382 0.5144991720239651
27 -0.02097313072209364 -0.30335640561453614 -0.34184680851561644
18 -0.12600606441419096 -0.14319028264238895 0.29251034297427064
17 0.020671679928677363 -0.04004101832630231 -0.023278463100607882
19 0.16734942427154575 0.06310824598978422 -0.3390672691754864
28 0.23958163115778716 0.016739910702218974 -0.571683302884896
65 -0.41574662816628943 0.07111827507701114 -0.2707007676206607
66 -0.4002910709200622 0.09497607859559655 -0.40618040876177675
61 -0.06645014221863915 -0.758795707273744 -0.16552594662288653
38 0.25452251469448456 0.18345413173753541 0.13804899128700598
22 -0.2937579971624348 0.11553723691365737 -0.043926382327629465

Bonds

1 1 14 15
2 1 14 16
3 1 68 69
4 1 68 70
5 1 11 12
6 1 11 13
7 1 62 63
8 1 62 64
9 1 35 36
10 1 35 37
11 1 1 2
12 1 1 3
13 1 1 4
14 1 1 5
15 1 59 60
16 1 59 61
17 1 29 30
18 1 29 31
19 1 44 45
20 1 44 46
21 1 47 48
22 1 47 49
23 1 41 42
24 1 41 43
25 1 23 24
26 1 23 25
27 1 6 7
28 1 6 8
29 1 6 9
30 1 6 10
31 1 53 54
32 1 53 55
33 1 56 57
34 1 56 58
35 1 20 21
36 1 20 22
37 1 77 78
38 1 77 79
39 1 74 75
40 1 74 76
41 1 32 33
42 1 32 34
43 1 71 72
44 1 71 73
45 1 50 51
46 1 50 52
47 1 26 27
48 1 26 28
49 1 17 18
50 1 17 19
51 1 65 66
52 1 65 67
53 1 38 39
54 1 38 40
