LAMMPS data file via write_data, version 4 Feb 2025, timestep = 18500000, units = lj

6000 atoms
4 atom types
4500 bonds
1 bond types
5250 angles
2 angle types

-12.037717 12.037717 xlo xhi
-12.037717 12.037717 ylo yhi
-12.037717 12.037717 zlo zhi
0 0 0 xy xz yz

Masses

1 1
2 1
3 0.1
4 0.1

Bond Coeffs # harmonic/omp

1 100 0.45

Angle Coeffs # harmonic/omp

1 100 180
2 100 109.471

Atoms # full

5235 1245 4 0 -10.201561995258412 -11.932733986756809 -11.33229160401065 16 1 0
3857 786 4 0 -2.13025887007106 -11.5368369872691 -11.211309207590842 3 0 0
80 16 3 0 -1.968279267628807 -11.590877277524065 -11.558723071095438 4 0 0
76 16 1 0 -1.6519801803727088 -11.634011536859438 -11.88033337944069 4 0 0
79 16 3 0 -1.2258069503681206 -11.716289892988456 -11.675447947756634 4 0 0
5363 1288 4 0 -0.8546234437466786 -11.704890298212886 -11.537766894036801 15 1 0
1699 340 3 0 7.903078598658013 -11.50813193584558 -11.853126330271005 7 0 1
4433 978 4 0 8.035724112328225 -11.908521340232715 -11.876352709236189 3 0 1
1696 340 1 0 7.989110597491106 -11.193837104415124 -11.556466274028665 7 0 1
1700 340 3 0 8.30242515245638 -11.345452380564835 -11.2610975553401 7 0 1
665 133 3 0 -11.197783873784475 -10.66926358826186 -11.2893466558714 3 0 0
2845 569 3 0 -9.97059132422372 -10.760929429671014 -11.3182037233713 16 1 0
4038 846 4 0 7.51853953658669 -10.715811825171844 -11.264150816722301 3 0 0
4036 846 2 0 7.3523488317008905 -10.309930713240975 -11.218308703293545 3 0 0
1698 340 3 0 7.612505571972537 -11.087844654816058 -11.331634000499843 7 0 1
1697 340 3 0 8.150351984857835 -10.837640718901149 -11.75588212516637 7 0 1
3863 788 4 0 -8.91282164796687 -9.840743209554544 -12.027111174961611 6 0 0
3862 788 2 0 -9.100409591388118 -9.896670782885812 -11.61639404189156 6 0 0
3864 788 4 0 -9.28225793211087 -9.961537434695872 -11.211948012466616 6 0 0
185 37 3 0 -7.956364995415492 -9.657691466680026 -11.888270810326349 5 0 0
3669 734 3 0 0.22877917232527167 -9.942326294505436 -11.356994693027321 4 0 1
3666 734 1 0 0.40321982022449276 -9.513831604878364 -11.452075072507137 4 0 1
3667 734 3 0 0.7113389969396415 -9.549928245514158 -11.7820600511137 4 0 1
4037 846 4 0 7.167276133999135 -9.890600124403125 -11.166139902761195 3 0 0
3668 734 3 0 0.08618702027501612 -9.257638751264874 -11.590595381194579 4 0 1
3824 775 4 0 2.310140886427053 -8.589108135079794 -11.504657228757546 4 0 0
490 98 3 0 2.6539405421634434 -8.667578087721237 -11.298103262883451 4 0 0
275 55 3 0 10.440507409171413 -8.95275899564241 -11.166610936536845 4 0 0
1619 324 3 0 11.014012700845615 -8.639991834564592 -11.723863589681397 4 0 1
5052 1184 4 0 11.727658715231993 -8.550352157157137 -11.289626562161764 5 0 0
1617 324 3 0 11.737113680646917 -8.45832631712286 -11.66938874870922 4 0 1
1616 324 1 0 11.430975962703396 -8.657450594975328 -11.92834003075032 4 0 1
1618 324 3 0 11.5489763988171 -9.075646962349941 -11.995612964629563 4 0 1
310 62 3 0 0.9284122828458159 -7.720192866408944 -11.341585239866232 4 0 0
306 62 1 0 1.069901195534225 -7.728315516544571 -11.760794372255578 4 0 0
4809 1103 4 0 0.7955239876799549 -8.088460073005285 -11.17084864404291 4 0 1
307 62 3 0 0.8559881909135818 -8.053870842023665 -11.986643958380538 4 0 0
3776 759 4 0 1.8465076483921514 -7.655838821576684 -11.905158575607233 5 0 0
308 62 3 0 1.5063929052155736 -7.818584222205752 -11.76737492028936 4 0 0
3825 775 4 0 1.8320826009331572 -7.852507595171144 -11.532899336624801 4 0 0
3823 775 2 0 2.0801406328975762 -8.227583490923925 -11.518187850877059 4 0 0
670 134 3 0 3.3343480562789622 -7.6779989576307734 -11.625698453540956 5 0 0
666 134 1 0 3.658826997494357 -7.488784861506989 -11.905635375090158 5 0 0
667 134 3 0 4.081168605767488 -7.490398328294305 -11.695149343671808 5 0 0
95 19 3 0 6.975377889875528 -7.946153730657127 -11.362215026530713 3 0 0
94 19 3 0 7.48535358914506 -7.432574964845722 -11.428965759274673 3 0 0
274 55 3 0 10.464884058926838 -8.210606128341833 -11.287599772699375 4 0 0
309 62 3 0 0.9980853291482763 -7.360176130588352 -11.951204599494277 4 0 0
668 134 3 0 3.5427701286804893 -7.06209201772764 -11.996267401462502 5 0 0
3873 791 4 0 3.8111325825420224 -6.780771773519822 -12.014220311161317 5 0 0
3968 823 4 0 4.421791485535664 -7.334707739003036 -11.549789890443114 4 0 0
3967 823 2 0 4.684798363700789 -6.985564798424801 -11.608690603788455 4 0 0
3969 823 4 0 4.943534265519034 -6.648086212506633 -11.66849613654908 4 0 0
208 42 3 0 5.769765134250278 -6.521042364946279 -11.811845575417099 4 0 0
4008 836 4 0 5.872872141461787 -6.857803384320248 -11.98941670200405 6 0 0
1553 311 3 0 6.057668712989937 -7.1708199879243235 -11.207508416820563 3 0 1
207 42 3 0 5.080002509245396 -6.336692693081131 -11.883230192250837 4 0 0
210 42 3 0 5.566248625935881 -5.863062013510509 -11.577028413927438 4 0 0
206 42 1 0 5.508221892137595 -6.190566180509776 -11.897264418639569 4 0 0
3902 801 4 0 -4.663042042827966 -4.954703660497089 -11.508118275151395 6 0 0
3901 801 2 0 -4.554079120640537 -5.17633786281448 -11.865383465143106 6 0 0
4743 1081 4 0 5.630128198361575 -5.468390657288064 -11.620616472162755 5 0 1
4741 1081 2 0 5.843936627446844 -5.097451269706037 -11.37447011826783 5 0 1
4742 1081 4 0 6.0280615934196256 -4.770297277516477 -11.171307591397925 5 0 1
2358 472 3 0 11.378094200212445 -4.664783759212669 -11.390019550410427 16 1 0
1432 287 3 0 -4.80035078749787 -4.59849055216788 -11.380980657902933 6 0 1
1624 325 3 0 9.06564062182527 -3.8026339813183245 -11.355795463013111 7 0 1
2144 429 3 0 -6.842733490221871 -2.543886143448132 -11.56819374257512 7 0 0
2143 429 3 0 -6.213526012255955 -2.7224643763204632 -11.227595039006047 7 0 0
2141 429 1 0 -6.4955509160159 -2.3962068630259594 -11.298155907410155 7 0 0
2145 429 3 0 -6.289966611591833 -2.069571539589809 -11.483855970561327 7 0 0
4605 1035 4 0 -5.961127867225345 -1.8551421571345834 -11.517874995159422 6 0 1
943 189 3 0 -4.15680452909638 -1.9944040309545805 -11.997827178766048 8 0 0
942 189 3 0 -3.4598829399133244 -2.069615903660324 -11.825209973251885 8 0 0
4586 1029 4 0 -3.2174947495149233 -2.4072437989057125 -11.918847063767005 10 0 1
4049 850 4 0 -3.2428913230620093 -2.2623729121043503 -11.543412024342206 7 0 0
4048 850 2 0 -2.966170855785231 -2.3113059164881182 -11.208702799287003 7 0 0
4012 838 2 0 -1.509812993519425 -1.9798948308183775 -11.544671316744589 6 0 0
4603 1035 2 0 -5.762588995792804 -1.6170968428927708 -11.869304692464365 6 0 1
941 189 1 0 -3.7900076194026493 -1.7744196144927624 -11.898071376562465 8 0 0
944 189 3 0 -3.8513707009653384 -1.5396148181431464 -11.514935383071935 8 0 0
4013 838 4 0 -1.4791291812349012 -1.7882528313934376 -11.947083950534568 6 0 0
1734 347 3 0 -5.078574043529962 -0.6567996758491059 -11.999672410336826 6 0 1
3611 723 1 0 3.750698357157212 -0.1055555743961456 -11.389289230010661 10 0 1
3614 723 3 0 4.011832731937201 -0.4589710445674591 -11.537347486739087 10 0 1
5233 1245 2 0 -10.532074449556724 -11.742866187277965 -11.081550962664398 16 1 0
5234 1245 4 0 -10.847702596258024 -11.56622250706627 -10.84579509778344 16 1 0
664 133 3 0 -11.062385652562275 -11.228759757267415 -10.817869713468246 3 0 0
3891 797 4 0 -9.591674211525747 -11.222225106993081 -10.510894998384176 4 0 0
3889 797 2 0 -9.497605743167561 -11.636676789257406 -10.643783944704424 4 0 0
3856 786 2 0 -1.9300666316932382 -11.634426027992072 -10.833336114501602 3 0 0
3858 786 4 0 -1.7195454980833187 -11.72840365668 -10.464019809476149 3 0 0
3767 756 4 0 8.587386948319928 -11.312373907094699 -10.933054429063525 4 0 0
3766 756 2 0 8.667504632879279 -11.652362436351062 -10.673668925020058 4 0 0
3768 756 4 0 8.750919100115023 -11.995872956324165 -10.411194518805237 4 0 0
4225 909 2 0 11.285176312697917 -11.459070269844862 -10.649837317356447 2 0 0
4227 909 4 0 11.389364331300758 -11.874613347570323 -10.79560763316066 2 0 0
3084 617 3 0 11.728054441043998 -11.979994696218927 -10.615922938792997 14 1 0
662 133 3 0 -11.380421229274884 -10.634684875051331 -10.568990703621564 3 0 0
5352 1284 4 0 -11.485044789347363 -10.334705021591338 -10.335539423181414 15 1 0
5350 1284 2 0 -11.930690435260475 -10.225009518233088 -10.397447843698341 15 1 0
661 133 1 0 -11.079672056422895 -10.803220825395107 -10.857049415724877 3 0 0
663 133 3 0 -10.673459500417701 -10.631439808641211 -10.757278368420067 3 0 0
2842 569 3 0 -10.26970496595939 -10.409275577067532 -10.720500578653429 16 1 0
2843 569 3 0 -9.558894076179351 -10.187163578567345 -10.996296132118488 16 1 0
2841 569 1 0 -9.874940189373474 -10.564419256673965 -10.91970009485398 16 1 0
2844 569 3 0 -9.668831345061331 -10.866609205097477 -10.647745605696462 16 1 0
296 60 1 0 3.3812154358503985 -10.250909334184282 -10.403506355447437 4 0 0
297 60 3 0 3.4170517207589697 -10.554763190672626 -10.75101265337312 4 0 0
1040 208 3 0 10.698764143893893 -10.311906473201915 -10.800524663502193 3 0 0
1039 208 3 0 11.135052921156166 -10.68396802446766 -10.333947278720165 3 0 0
1036 208 1 0 10.982806205335795 -10.275368010195237 -10.447974630618637 3 0 0
4226 909 4 0 11.183654991395851 -11.052262076870077 -10.509110255522891 2 0 0
3670 734 3 0 0.5921781613783779 -9.327900013996723 -11.085468875716552 4 0 1
300 60 3 0 3.2944655486952694 -9.86019483308148 -10.568160409049039 4 0 0
134 27 3 0 6.416923295769443 -9.320209478961642 -10.587862344144348 4 0 0
131 27 1 0 6.813097870272294 -9.516516267049239 -10.52395683128079 4 0 0
133 27 3 0 6.902735994244868 -9.807676699111555 -10.875047434891801 4 0 0
4558 1020 2 0 10.358568712256307 -9.620402519372897 -11.062145813647396 6 0 1
4559 1020 4 0 10.534494152349666 -10.0402804952467 -11.050993780499399 6 0 1
5351 1284 4 0 11.705974816075411 -10.117861534962202 -10.443204297053923 14 1 0
1038 208 3 0 11.35385606884017 -9.988042458438576 -10.581497136564627 3 0 0
5051 1184 4 0 -11.871045711623557 -8.635911054426744 -10.567332411896508 6 0 0
443 89 3 0 -11.48680939209588 -8.502843752921583 -10.615856210274965 4 0 0
442 89 3 0 -10.827728158982802 -8.559012249971493 -10.329810195085692 4 0 0
4808 1103 4 0 0.7750300900955551 -8.990334365017507 -10.988851166553479 4 0 1
4807 1103 2 0 0.7761788107420937 -8.52754440864835 -11.080162680173622 4 0 1
5048 1183 4 0 2.5502725431912445 -9.129264698258917 -10.381762270303934 15 1 0
487 98 3 0 2.757302146251172 -8.879698092451033 -10.587600475396982 4 0 0
486 98 1 0 2.9521146769709983 -8.679362229835718 -10.94058516716338 4 0 0
489 98 3 0 3.3123958837144123 -8.914940291692995 -11.054131794853348 4 0 0
5851 1451 2 0 6.149336089811271 -8.591086603182168 -10.599041793691125 13 1 1
5853 1451 4 0 6.129831297330419 -9.036754310204293 -10.60355412591492 13 1 1
135 27 3 0 7.144825494493752 -9.19916624905978 -10.502704095398851 4 0 0
4591 1031 2 0 7.319413271999142 -8.494265274529557 -10.335070263459952 3 0 1
4560 1020 4 0 10.170767898834562 -9.203177090190877 -11.082830293472739 6 0 1
273 55 3 0 10.024810683539727 -8.490615604256512 -10.768960381882614 4 0 0
271 55 1 0 10.416826254706177 -8.544524928106584 -10.967113709106979 4 0 0
272 55 3 0 10.757481290745762 -8.506882296100681 -10.647182296800864 4 0 0
5050 1184 2 0 11.967451741905442 -8.597796112868213 -10.923427807845687 5 0 0
441 89 1 0 -11.195020508134114 -8.298878726836957 -10.358507409025433 4 0 0
445 89 3 0 -11.08053299415928 -7.873273040362737 -10.558410108318638 4 0 0
488 98 3 0 3.071761405728381 -8.280296237980684 -10.831286852216435 4 0 0
1555 311 3 0 6.09115255539189 -7.770591859723119 -10.719639476155827 3 0 1
5852 1451 4 0 6.152189192131104 -8.162612353592888 -10.59318868893579 13 1 1
91 19 1 0 7.19385792944966 -7.626188648798767 -11.145894737327897 3 0 0
92 19 3 0 7.408714280253946 -7.81091637489852 -10.785283750445496 3 0 0
4593 1031 4 0 7.38849929231522 -8.02447796472819 -10.443046997881842 3 0 1
3993 831 4 0 9.825733919309087 -8.254780102390754 -10.479491861680915 5 0 0
4338 946 4 0 10.885733886286015 -8.145362822906115 -10.485632812645793 3 0 0
2374 475 3 0 -10.19267555897767 -6.51864597111955 -10.858927163767326 13 1 0
4468 990 2 0 1.3132493181612048 -7.212178464664508 -10.369813286303044 5 0 1
4469 990 4 0 1.683643609414224 -7.223766983333973 -10.563961610883489 5 0 1
1963 393 3 0 1.9717746252325927 -6.980187593761976 -10.674385490812682 5 0 1
1961 393 1 0 2.3834243886636166 -6.936127906219916 -10.52430816469856 5 0 1
1965 393 3 0 2.5014675295885827 -6.4992953034315075 -10.518724835185411 5 0 1
1962 393 3 0 2.6598271796957054 -7.170692955931946 -10.798804253867571 5 0 1
1552 311 3 0 5.70024824769418 -7.183775746867936 -10.555583985285391 3 0 1
1551 311 1 0 6.062310126148976 -7.318041531968743 -10.752210549044452 3 0 1
1554 311 3 0 6.422373816269062 -7.1304220939018315 -10.531283136432183 3 0 1
93 19 3 0 6.895843125045584 -7.324534998079641 -11.0177834880118 3 0 0
2372 475 3 0 -10.682727150766912 -6.436276521661351 -10.338891244935974 13 1 0
2375 475 3 0 -10.802136964441543 -6.12661766646669 -10.973674345989455 13 1 0
2371 475 1 0 -10.490616472707826 -6.233019739059294 -10.669589485123527 13 1 0
2373 475 3 0 -10.275778278940452 -5.85204267680079 -10.522645246379902 13 1 0
385 77 3 0 -6.6210208355505955 -5.913774047769736 -10.474522234613726 5 0 0
2357 472 3 0 -12.01147630544613 -4.632473716071459 -11.13478057225286 17 1 0
384 77 3 0 -6.035451798269904 -5.4874616118838295 -10.347507497873258 5 0 0
3755 752 4 0 -4.362601568843781 -4.650607671768686 -10.583922104000443 10 0 0
2359 472 3 0 11.51874056790123 -4.7366115667055695 -10.665787612799791 16 1 0
1433 287 3 0 -5.382941024367475 -4.583984373662708 -10.926692108383982 6 0 1
1435 287 3 0 -5.031248842108811 -3.940094873783007 -11.09939315509773 6 0 1
1431 287 1 0 -4.975497793904386 -4.399522789970578 -11.021006688187706 6 0 1
1434 287 3 0 -4.705406712923784 -4.4610191535777 -10.671140514997205 6 0 1
347 70 3 0 6.520272574408587 -3.7601133165276455 -11.070635788626754 6 0 0
350 70 3 0 5.914344792358218 -3.922965689459101 -10.638706876739887 6 0 0
348 70 3 0 6.236218315139155 -4.435384200139564 -11.07153052108109 6 0 0
346 70 1 0 6.323367339476629 -4.081970661631519 -10.818775619666589 6 0 0
349 70 3 0 6.594630007721591 -4.194493374368838 -10.50320964616713 6 0 0
1625 325 3 0 9.257549315724717 -3.986380498300658 -10.674276333317227 7 0 1
2356 472 1 0 11.637986557187059 -4.530803381624519 -11.048588406261521 16 1 0
2360 472 3 0 11.596498729970051 -4.078554439809202 -10.982190852876599 16 1 0
3713 743 3 0 -2.002113140951371 -3.094989542039924 -11.134655526698756 9 0 0
3714 743 3 0 -1.8694183585116502 -2.973676970023785 -10.436928277686649 9 0 0
3711 743 1 0 -2.018565095025661 -2.794337004396114 -10.81905260775502 9 0 0
4030 844 2 0 8.261018926518009 -3.1868227378454286 -10.428322670614198 7 0 0
4031 844 4 0 8.515262957491945 -3.3777575818223635 -10.754617200164045 7 0 0
1621 325 1 0 9.207423915945562 -3.6472343278687838 -10.947490602138485 7 0 1
1623 325 3 0 8.912509828869393 -3.3649874676099767 -10.788358021211065 7 0 1
1622 325 3 0 9.60759798893191 -3.440220066566969 -10.997933014404332 7 0 1
4911 1137 4 0 -6.876006854772108 -2.234312347178788 -10.551998693962052 6 0 0
2142 429 3 0 -6.668673752803949 -2.2489646570115998 -10.895629134640119 7 0 0
4050 850 4 0 -2.6899997812877086 -2.352947525521934 -10.879569150300943 7 0 0
3715 743 3 0 -2.448135975487231 -2.667657195188392 -10.763265790678716 9 0 0
4014 838 4 0 -1.5384552152380007 -2.179998674608253 -11.13324130541548 6 0 0
3712 743 3 0 -1.774235937430591 -2.4469143842537413 -10.934069579073018 9 0 0
852 171 3 0 8.863158175642365 -1.2125042151320606 -10.644586187981684 10 0 1
851 171 1 0 8.869322955373619 -0.9582554401465533 -10.2960846595257 10 0 1
3191 639 1 0 -6.237693263912812 -0.22752941950744088 -10.687568480959378 12 0 1
3192 639 3 0 -6.649793381226272 -0.16623629869926226 -10.87904809763074 12 0 1
3195 639 3 0 -6.053558641024462 -0.5744783346589841 -10.853695578251381 12 0 1
3615 723 3 0 3.4775197897731402 -0.24855657913265183 -11.00695601514155 10 0 1
855 171 3 0 8.664317112344222 -0.5404154005267401 -10.390029894303506 10 0 1
3939 813 4 0 10.12317035460416 -0.10952793920622383 -10.506377602953231 10 0 0
3937 813 2 0 9.87939826820547 -0.4798827859445094 -10.290391022488167 10 0 0
1716 344 1 0 10.93423882661169 -0.025124519678078272 -10.536175492242885 8 0 1
1718 344 3 0 11.02169262208098 -0.19326135415653312 -10.965189123578163 8 0 1
1719 344 3 0 10.509866575467818 -0.039182635700820256 -10.458122656728374 8 0 1
137 28 3 0 -8.426629341186587 -11.76205784285881 -9.526156191790829 6 0 0
4064 855 4 0 -3.370958004015355 -11.96557066320769 -9.42978649552286 4 0 0
5349 1283 4 0 4.453082385268843 -11.131072625025785 -9.622023623032584 15 1 0
2120 424 3 0 5.388256148009827 -11.21808165179295 -9.68003948599484 16 1 0
2098 420 3 0 9.403979791045224 -11.852654673471212 -9.513428434780122 15 1 0
2088 418 3 0 -10.544278779507886 -10.432021827117111 -9.70807500093979 14 1 0
298 60 3 0 3.037894662568883 -10.378388783956524 -10.121215720772387 4 0 0
3841 781 2 0 2.6186816857276813 -10.656670445851747 -9.599367249831252 4 0 0
3843 781 4 0 2.9942314249032957 -10.682386957622738 -9.869375098393979 4 0 0
5348 1283 4 0 3.952506299148615 -10.379877679084279 -9.829686419771654 15 1 0
299 60 3 0 3.7905676775244537 -10.23088518689235 -10.163322825302636 4 0 0
5347 1283 2 0 4.200000810041988 -10.74892350863136 -9.727699828775233 15 1 0
2086 418 1 0 -10.332917226403067 -10.156930565195214 -9.439835968384783 14 1 0
4107 869 4 0 -10.735227844186445 -9.418475044223316 -9.39192781332025 4 0 0
2089 418 3 0 -9.973929393909442 -9.997423053214918 -9.641238630696327 14 1 0
1953 391 3 0 2.0120481841413476 -9.55105083637216 -9.494579567431376 4 0 1
5049 1183 4 0 1.9583006997602581 -9.442437667305912 -9.856648924947956 15 1 0
5047 1183 2 0 2.26372646138271 -9.278669725597078 -10.128963703917009 15 1 0
132 27 3 0 6.806357274176538 -9.75139909302254 -10.12314524191254 4 0 0
1037 208 3 0 10.765255290623791 -10.077255469691249 -10.082239757133744 3 0 0
5895 1465 4 0 10.353225691832332 -9.436999907348685 -9.38232379851532 13 1 1
5894 1465 4 0 10.370952792092911 -9.972408580772063 -10.094568983871037 13 1 1
5893 1465 2 0 10.362967682732005 -9.714082488227557 -9.74660596632731 13 1 1
4105 869 2 0 -10.765624892627892 -9.091614692177933 -9.692687044483295 4 0 0
4106 869 4 0 -10.782943983250801 -8.75848782751416 -9.9946098528156 4 0 0
4592 1031 4 0 7.269052510997348 -8.91726230991112 -10.233981082674898 3 0 1
772 155 3 0 10.673095631009584 -9.200680354202534 -9.423436656787764 3 0 0
774 155 3 0 10.651894299220665 -8.4596554878242 -9.462531201170243 3 0 0
444 89 3 0 -11.374823199697355 -8.224494474833318 -9.943797188706272 4 0 0
2190 438 3 0 0.0976209937946404 -7.959405843176606 -10.003251781975248 14 1 0
2186 438 1 0 0.5432989378174344 -7.921779915098837 -9.861571350072227 14 1 0
2189 438 3 0 0.7340339292970359 -7.538911012397944 -10.039783446595544 14 1 0
2187 438 3 0 0.787567455506915 -8.280200735267444 -10.013131976879713 14 1 0
2188 438 3 0 0.5544102191202658 -7.907788053247262 -9.40405759128683 14 1 0
3992 831 4 0 9.82001095903388 -7.923086790547202 -9.674683929709012 5 0 0
3991 831 2 0 9.824505941161924 -8.086507561587414 -10.069922715858244 5 0 0
322 65 3 0 9.513957236635932 -7.996520000845469 -9.410003215305025 4 0 0
4337 946 4 0 10.941545034206204 -8.197148316025633 -9.585499451337949 3 0 0
4336 946 2 0 10.911596357569508 -8.171788543645109 -10.046958247831311 3 0 0
4470 990 4 0 0.9431899955935901 -7.1994944771469305 -10.158188997669836 5 0 1
1964 393 3 0 2.4020158071097537 -7.10097560281571 -10.100895433099923 5 0 1
4944 1148 4 0 5.481669638956625 -7.10253628836016 -10.23221432274196 6 0 0
4942 1148 2 0 5.417087959179025 -6.8243480905680425 -9.86508210019062 6 0 0
4943 1148 4 0 5.352837768420066 -6.565101278509825 -9.513188399364518 6 0 0
381 77 1 0 -6.417157957082424 -5.641030253231932 -10.166461246108563 5 0 0
382 77 3 0 -6.326264380168651 -5.875485579619538 -9.784187354252778 5 0 0
4347 949 4 0 -6.102063744756753 -5.7581781848911655 -9.456711460093116 5 0 0
3634 727 3 0 1.4861114092414418 -5.935057833060652 -9.868995981575068 14 1 1
3633 727 3 0 2.121466487387055 -6.286822638149796 -9.794704983911988 14 1 1
3631 727 1 0 1.7852385356768554 -6.0889300229048455 -9.574936954068408 14 1 1
372 75 3 0 3.1485056283330177 -5.7092537985393275 -9.677065211348296 5 0 0
374 75 3 0 3.452129390668876 -6.095294804051077 -10.23362245707289 5 0 0
373 75 3 0 3.639973657767344 -6.239488502994634 -9.504045585743748 5 0 0
371 75 1 0 3.515770813223277 -5.902734895771966 -9.813528489993118 5 0 0
375 75 3 0 3.8517036218766716 -5.592467346729961 -9.834234392542367 5 0 0
1497 300 3 0 5.295811697556971 -5.658548779357333 -9.457725827085401 7 0 1
292 59 3 0 8.705884083207959 -5.918269141074694 -9.815305932547666 9 0 0
295 59 3 0 9.342413465073793 -5.707140779111047 -10.092385076965785 9 0 0
291 59 1 0 9.153114775818786 -5.9600283248652595 -9.796981578327982 9 0 0
293 59 3 0 9.291790875267587 -5.840203982870706 -9.388590693257235 9 0 0
294 59 3 0 9.263304654801676 -6.3719179431059 -9.875470989076575 9 0 0
383 77 3 0 -6.697946854633112 -5.287881271837938 -10.060297481908663 5 0 0
3754 752 2 0 -4.166647342202808 -4.762545996063843 -10.245892355491845 10 0 0
3756 752 4 0 -3.948922284271722 -4.881465009560333 -9.871993769635568 10 0 0
447 90 3 0 -3.6755311432323534 -4.768268430031309 -9.619811400676817 7 0 0
4626 1042 4 0 4.179081495205416 -5.3926258384677155 -9.992215898988452 5 0 1
4624 1042 2 0 4.583388300079793 -5.461710203827275 -9.84032413808978 5 0 1
4625 1042 4 0 4.997813216790377 -5.52129077281688 -9.694404177862213 5 0 1
327 66 3 0 8.382456246711008 -4.823606919495901 -10.217630545613256 5 0 0
329 66 3 0 8.614568273736982 -4.6402391163718475 -9.557612403369186 5 0 0
5007 1169 4 0 6.811253579156528 -4.166485262614314 -10.187934461255933 6 0 0
5005 1169 2 0 7.247789057501873 -4.141841120098914 -10.02694062880976 6 0 0
5006 1169 4 0 7.670678946860164 -4.1196814507874455 -9.88155640641863 6 0 0
328 66 3 0 8.0548025316747 -4.259923048470973 -9.870033896214043 5 0 0
326 66 1 0 8.461315023360658 -4.484349470739107 -9.948145307659303 5 0 0
330 66 3 0 8.769814128102006 -4.192915043911332 -10.129457995469567 5 0 0
2597 520 3 0 -7.655839580821824 -3.5535808673020455 -9.49959964708024 7 0 0
2599 520 3 0 -7.357779897726498 -3.020420355995906 -9.953520841918069 7 0 0
2596 520 1 0 -7.473116700638881 -3.1264094474977764 -9.507996826512738 7 0 0
570 114 3 0 -6.478311673867726 -2.8966085803830914 -9.371284687142 7 0 0
568 114 3 0 -5.734646874327503 -2.833484992298514 -9.412503502888397 7 0 0
4032 844 4 0 8.038354036797454 -3.0191902531519954 -10.127608465360083 7 0 0
4909 1137 2 0 -7.024276608374663 -2.4482783433095303 -10.212657101892972 6 0 0
4910 1137 4 0 -7.172118088555503 -2.666725856705945 -9.836045662939496 6 0 0
2340 468 3 0 7.482613184002307 -2.7552040780688536 -9.55680127973281 5 0 0
2339 468 3 0 7.438039508911878 -2.111473258431051 -9.91675755427333 5 0 0
2337 468 3 0 7.849435957240868 -2.6579376214266173 -10.172064641450108 5 0 0
2336 468 1 0 7.7062067521921875 -2.4632030898825352 -9.803451661292447 5 0 0
2338 468 3 0 8.025177122420839 -2.3248469215973753 -9.596787488807058 5 0 0
853 171 3 0 8.641090560198595 -1.1607111738667584 -9.965149634210993 10 0 1
3194 639 3 0 -6.296551474951066 -0.2797356558841102 -10.211814990970943 12 0 1
854 171 3 0 9.284573618254832 -0.887588040420427 -10.169106007673442 10 0 1
3938 813 4 0 9.67531295311532 -0.8217870129949176 -10.091106234860055 10 0 0
1717 344 3 0 11.176918111286664 -0.27656617848974463 -10.215488814185345 8 0 1
4524 1008 4 0 -9.407624787031573 -11.387120870358999 -9.246342065532469 3 0 1
138 28 3 0 -9.130536932809829 -11.661218243829625 -9.311295331719458 6 0 0
136 28 1 0 -8.73698601683321 -11.9316912842731 -9.283954877579898 6 0 0
140 28 3 0 -8.608392871602472 -11.947653519020912 -8.847772547948082 6 0 0
3805 769 2 0 -4.327814307148193 -11.599592083681468 -8.55255338111753 17 1 0
3807 769 4 0 -4.654985834346057 -11.900687860967698 -8.611013816384823 17 1 0
2300 460 3 0 -3.6335619939961745 -11.423676890354821 -8.617733581195964 16 1 0
3806 769 4 0 -3.9829539010543744 -11.294663947393897 -8.50491893447169 17 1 0
2299 460 3 0 -3.3089173219243246 -11.633654233782973 -9.244408151275044 16 1 0
2296 460 1 0 -3.241049186191164 -11.414427342409908 -8.870428363637364 16 1 0
2297 460 3 0 -2.9242741166817527 -11.604687758469277 -8.651101204886965 16 1 0
4016 839 4 0 -2.6065165787638698 -11.834948511400283 -8.534928805387946 6 0 0
2118 424 3 0 5.14228546142488 -11.617136739645002 -9.113371500853873 16 1 0
2116 424 1 0 5.181511188732657 -11.20075405587543 -9.29098160140134 16 1 0
1536 308 1 0 11.068902699097645 -12.00809719811734 -9.112185210656385 4 0 1
1540 308 3 0 10.684756024478219 -11.874229457904148 -8.980398751815677 4 0 1
1539 308 3 0 11.255156703270021 -11.679887461369843 -9.350804966518803 4 0 1
4522 1008 2 0 -9.65743550724996 -11.032912672161475 -9.12470383738092 3 0 1
2090 418 3 0 -10.204451259097706 -10.38808181598846 -9.068915466529031 14 1 0
4523 1008 4 0 -9.922400313964168 -10.672641005367996 -9.004521015146324 3 0 1
2298 460 3 0 -3.1259254165584256 -10.988484692802732 -8.968426700150438 16 1 0
5525 1342 4 0 -3.0594972003125083 -10.662101852958582 -8.741651410963957 16 1 0
1952 391 3 0 2.1795457719832 -10.234298693565528 -9.328675662478439 4 0 1
3842 781 4 0 2.2416005260289165 -10.61940184256088 -9.336637260873072 4 0 0
2119 424 3 0 4.776111417756795 -11.03050412907953 -9.362204205739895 16 1 0
2117 424 3 0 5.4033597467970935 -10.936663519489715 -9.008074784288796 16 1 0
2087 418 3 0 -10.615142149203118 -9.80634710669099 -9.32810640589631 14 1 0
5020 1174 2 0 1.0442002793324612 -9.913810501435622 -8.603977301940766 15 1 0
5021 1174 4 0 1.261606617817213 -10.073022391590694 -8.96723430471847 15 1 0
1954 391 3 0 1.6153179590394249 -9.877269254047143 -9.033092809554883 4 0 1
1951 391 1 0 2.0198199968213277 -9.8253221067794 -9.18367203074521 4 0 1
1955 391 3 0 2.284336141210554 -9.674104061743755 -8.866313739368438 4 0 1
5882 1461 4 0 2.4332517022753812 -9.844156980868844 -8.52011254863216 15 1 1
325 65 3 0 9.31822809064392 -8.634675431312347 -9.077438041395029 4 0 0
323 65 3 0 9.984472972963374 -8.383481851504566 -8.97519425700233 4 0 0
775 155 3 0 10.402652002613973 -8.810158598738832 -8.871624049965925 3 0 0
771 155 1 0 10.711733589157053 -8.8189063222731 -9.185550422295782 3 0 0
773 155 3 0 11.116097368901915 -8.805681571302939 -9.01268435922723 3 0 0
3867 789 4 0 0.434890474369352 -7.852411392913083 -9.027669171909617 5 0 0
3865 789 2 0 0.3321743563184256 -7.962296305517752 -8.577379654202645 5 0 0
324 65 3 0 9.43872084482744 -8.041015828951599 -8.672004557273715 4 0 0
321 65 1 0 9.567256472139437 -8.26049936803073 -9.02946968432966 4 0 0
3635 727 3 0 1.945474511426374 -5.74418484612934 -9.346658167062442 14 1 1
3632 727 3 0 1.5815091341429302 -6.372768002566436 -9.301894058103857 14 1 1
320 64 3 0 2.181802179516737 -5.702447306967717 -8.552858929237518 10 0 0
1500 300 3 0 5.537623504109977 -6.316581015996092 -9.249393162765372 7 0 1
1499 300 3 0 5.04092474943516 -5.971806271571511 -8.837183494648585 7 0 1
1496 300 1 0 5.398793957004205 -5.918831351456864 -9.097626093301622 7 0 1
1498 300 3 0 5.7373533768464675 -5.733480561030322 -8.854915789189334 7 0 1
4346 949 4 0 -5.96163599182948 -5.099712505546568 -8.885905928796326 5 0 0
4345 949 2 0 -6.033104397401739 -5.443188773114328 -9.174472094490158 5 0 0
43 9 3 0 -5.772684573312375 -4.734188033088985 -8.831381529878767 5 0 0
446 90 1 0 -3.564445809165653 -5.021075739609713 -9.24487917503656 7 0 0
450 90 3 0 -3.8531837485099434 -5.344300669721071 -9.207891133618713 7 0 0
449 90 3 0 -3.566641216012572 -4.779527895828956 -8.895881712780891 7 0 0
448 90 3 0 -3.158246595462378 -5.198456338724069 -9.30187950070041 7 0 0
3896 799 4 0 9.170488400356458 -5.511963827610428 -9.187092520105772 6 0 0
3895 799 2 0 9.023198069812075 -5.0768410073596355 -9.22430678371856 6 0 0
3897 799 4 0 8.870619123531249 -4.630806524261027 -9.244904555961785 6 0 0
42 9 3 0 -6.288507493762636 -4.27197843933514 -8.600283027648095 5 0 0
2600 520 3 0 -7.777554595774023 -2.8195394568028913 -9.353347816287119 7 0 0
2598 520 3 0 -7.105774709692235 -3.1157061765403444 -9.247242350711684 7 0 0
569 114 3 0 -6.0752150982796325 -2.904422603900695 -8.743261726092356 7 0 0
567 114 3 0 -6.151832307529232 -2.2886592989103196 -9.139889705899824 7 0 0
566 114 1 0 -6.1115216566197175 -2.7211833456840786 -9.168848221288341 7 0 0
899 180 3 0 -7.2335317617430475 -11.712345597549335 -7.810698113358406 4 0 0
4017 839 4 0 -1.8012512190908918 -12.030415635357615 -8.141130743661261 6 0 0
4015 839 2 0 -2.2099799000756537 -11.9293914635197 -8.345085070735909 6 0 0
789 158 3 0 -1.511691031504066 -11.825714667943553 -7.931021143226397 6 0 0
3570 714 3 0 2.138241969639987 -11.397981593400743 -7.7977658349225125 15 1 1
110 22 3 0 -7.969745450509427 -10.42013775336753 -8.014462889267907 16 1 0
32 7 3 0 -7.038245284275759 -10.797530753507992 -8.10107792565858 16 1 0
33 7 3 0 -6.7188904403704806 -10.265395027804349 -7.648634344976351 16 1 0
35 7 3 0 -6.313141729887355 -10.591336865863687 -8.139523444344235 16 1 0
31 7 1 0 -6.631197595428868 -10.651501534968482 -7.860555860509314 16 1 0
5524 1342 2 0 -2.8743691712045916 -10.402526465544797 -8.438898498164598 16 1 0
3569 714 3 0 1.526147989373646 -11.083548873954143 -7.981378461003822 15 1 1
3566 714 1 0 1.9089678731304804 -11.031690778551413 -7.765334673082959 15 1 1
3567 714 3 0 2.141077600244742 -10.683821999023719 -7.938893845363769 15 1 1
5883 1461 4 0 2.4898208053876 -10.52117313595712 -7.883275707887176 15 1 1
5526 1342 4 0 -2.688010360558062 -10.149039126143524 -8.145057534334972 16 1 0
1787 358 3 0 -2.3894622439441697 -9.900545163592122 -8.169716425807376 16 1 1
1786 358 1 0 -2.3543264378439694 -9.59074985941581 -7.880528529393849 16 1 1
1790 358 3 0 -2.765085766565763 -9.47232572779914 -7.733972615419552 16 1 1
5022 1174 4 0 0.8285206198308686 -9.77128874367187 -8.260037328334143 15 1 0
2519 504 3 0 0.9120393008339214 -9.97687886690502 -7.947215883939715 8 0 0