LAMMPS data file via write_data, version 4 Feb 2025, timestep = 8000000, units = lj

3435 atoms
4 atom types
2576 bonds
1 bond types
3004 angles
2 angle types

-10 10 xlo xhi
-10 10 ylo yhi
-10 10 zlo zhi
0 0 0 xy xz yz

Masses

1 1
2 1
3 0.1
4 0.1

Bond Coeffs # harmonic/omp

1 100 0.45

Angle Coeffs # harmonic/omp

1 100 180
2 100 109.471

Atoms # full

681 137 1 0 -3.374715912563402 -9.293726671712696 -9.519127268309251 13 1 1
685 137 3 0 -3.6269180822866156 -9.542318044752353 -9.199120020047289 13 1 1
682 137 3 0 -2.920500769121962 -9.379118071152165 -9.460872747080419 13 1 1
684 137 3 0 -3.513272662211903 -9.414566785136568 -9.948020515363407 13 1 1
2838 660 4 0 -2.635499365266279 -9.172836370275816 -9.66642749676901 4 0 2
2455 533 2 0 -1.5040940922804928 -9.695163991257292 -9.059651772971346 4 0 0
2310 484 4 0 -0.48618368673387913 -9.985967434135155 -9.68675867833174 3 0 0
683 137 3 0 -3.438896391593942 -8.905056792649848 -9.46705716454528 13 1 1
2784 642 4 0 -3.3012486788804205 -8.54406815608801 -9.335410814783485 5 0 1
1704 341 3 0 -1.0205213747867887 -8.64336411499896 -9.52245133335211 6 0 1
1705 341 3 0 -1.6106279090074498 -8.84175844761874 -9.09334376955475 6 0 1
1701 341 1 0 -1.2844980955427427 -8.520072052861872 -9.160614912460057 6 0 1
1703 341 3 0 -1.4776728957941465 -8.098311755625812 -9.251758487305324 6 0 1
1730 346 3 0 -4.4029341675429166 -5.872991295177838 -9.165614249803777 19 2 1
1117 224 3 0 -5.826350063457262 -5.281389573947177 -9.794946198871697 15 2 2
3130 758 2 0 -4.475548259271566 -5.646948591052901 -9.924262845134288 12 1 0
3132 758 4 0 -4.398301152168863 -5.640663342831678 -9.494255877952716 12 1 0
2157 433 4 0 -9.36814493123781 -3.624520606392898 -9.09244277202828 2 -1 1
2155 433 2 0 -9.138953748387094 -3.6400740580278956 -9.477932173743488 2 -1 1
2156 433 4 0 -8.886796694407318 -3.658484705583488 -9.879235341109384 2 -1 1
2923 689 2 0 -7.63833541799578 -2.5186832188150676 -9.819972744892448 20 2 -1
2924 689 4 0 -7.351936599132182 -2.23927274012949 -9.598943662399925 20 2 -1
1487 298 3 0 -5.607041059382029 -2.7781788481736083 -9.82541467582126 16 1 -1
1486 298 1 0 -5.161673107353871 -2.9264586037396967 -9.813034819585612 16 1 -1
1488 298 3 0 -4.897510061349144 -2.621582921531348 -9.990511420808058 16 1 -1
1489 298 3 0 -5.046285911577703 -2.9963390945191737 -9.393862837002844 16 1 -1
784 157 3 0 -6.931251488992287 -1.5253004093878175 -9.441236956306142 8 0 1
781 157 1 0 -6.985114733675104 -1.6554576664506975 -9.887468189032887 8 0 1
2336 493 4 0 -7.123068764200166 -1.6923154818485138 -9.129344385458847 8 0 -1
782 157 3 0 -7.254008117534185 -2.0125408976335617 -9.912936459278635 8 0 1
3031 725 2 0 -0.4847898961532451 -0.4680527722030092 -9.956555110093358 2 -1 0
2170 438 2 0 -7.0716929275696 -0.35179286578512503 -9.952871176978633 14 1 -1
2172 438 4 0 -6.812223124593464 -0.025204897465126663 -9.79506528845092 14 1 -1
937 188 3 0 -6.872657686563427 0.30904075714173906 -9.600212456145648 4 -1 1
3032 725 4 0 -0.48521663859501274 -0.42675634292436015 -9.486869273521041 2 -1 0
918 184 3 0 -0.44177179873335426 -0.28340686695502626 -9.132569222892771 3 0 0
936 188 1 0 -6.614517463354153 0.6752763083594164 -9.617617986874853 4 -1 1
938 188 3 0 -6.820319673439096 1.0021791722641353 -9.465304414810765 4 -1 1
939 188 3 0 -6.226062003219347 0.6038059896684782 -9.364011801695563 4 -1 1
2805 649 4 0 -0.37058349211165265 0.5762351766839036 -9.379355528462881 12 0 3
2803 649 2 0 -0.5286834586600193 0.7970138675242016 -9.767199678312133 12 0 3
2761 635 2 0 -4.853521486875395 2.9784204139404515 -9.128911659124975 9 0 1
2762 635 4 0 -4.412609343778144 2.8626809346585986 -9.10665544473152 9 0 1
2136 428 1 0 -5.559865162455832 3.7982924714433164 -9.37156036893997 10 0 2
2137 428 3 0 -5.523233475644048 3.358505869338382 -9.3936512031668 10 0 2
2763 635 4 0 -5.32202971272941 3.113277459458663 -9.153390527774317 9 0 1
2871 671 4 0 -6.635153731500267 4.624501657284583 -9.809147087041854 12 0 0
364 73 3 0 -7.011290382692338 4.724928628776361 -9.744492390866638 4 -1 0
2140 428 3 0 -5.853405473912609 3.959124164735286 -9.7274222153283 10 0 2
2869 671 2 0 -6.2551451845393675 4.43584632911989 -9.91900655238532 12 0 0
2139 428 3 0 -5.166879621792344 3.982678060548448 -9.410149010692923 10 0 2
2189 444 4 0 -5.213392437089493 4.362591204296962 -9.564183788580596 10 0 0
2374 506 2 0 -8.135203040770136 5.240332998601582 -9.76485646004594 0 -2 0
2376 506 4 0 -7.908927300184361 5.294592057237439 -9.379452776830403 0 -2 0
363 73 3 0 -7.5532155947413075 5.088773647822542 -9.42360734954233 4 -1 0
361 73 1 0 -7.117912911831414 5.040264583593146 -9.44356978676907 4 -1 0
362 73 3 0 -6.938890274940174 5.433684987451306 -9.571920345829973 4 -1 0
365 73 3 0 -6.9544184416211845 4.919618884270349 -9.047993418970664 4 -1 0
2190 444 4 0 -5.016438644300975 5.224455562803591 -9.697738194485266 10 0 0
2188 444 2 0 -5.119265768176203 4.785709659182908 -9.625111704027713 10 0 0
150 30 3 0 -4.92122347814897 5.592322626108309 -9.730675979747746 14 0 -1
147 30 3 0 -5.22218780885908 6.212373859475505 -9.468777121393455 14 0 -1
2727 623 4 0 -5.371558107248305 6.042074084199797 -9.143405763925125 -6 -2 -1
146 30 1 0 -5.153211111380534 5.963117435924996 -9.834386455023354 14 0 -1
872 175 3 0 -7.8774530023763845 7.434690468250466 -9.994960782395468 -4 -2 1
439 88 3 0 -0.7750099030753415 9.013047136307122 -9.445726455937459 10 0 1
868 174 3 0 -9.376895092523547 9.350970573750619 -9.086338049974254 11 0 2
3083 742 4 0 -8.45177434061922 9.461587775669095 -9.859954700123625 18 1 1
3084 742 4 0 -8.98128710421601 9.450984311454079 -9.120861477791951 18 1 1
3082 742 2 0 -8.701965059017649 9.45279397240968 -9.513029780106429 18 1 1
2457 533 4 0 -1.4479192460768413 9.850025903302836 -9.10562517603485 4 -1 0
438 88 3 0 -1.1015284133536358 9.58442418075689 -9.149598623483243 10 0 1
437 88 3 0 -0.43777739760219525 9.662320496217866 -9.504906588208629 10 0 1
436 88 1 0 -0.7024814537062589 9.3847092708071 -9.241063566983918 10 0 1
870 174 3 0 -9.699312296774698 -9.998293882380954 -8.936910658014652 11 1 2
2456 533 4 0 -1.5667850391956257 -9.220137981981267 -9.024301076814366 4 0 0
2782 642 2 0 -3.115028828592571 -8.321666183675248 -8.980878574605226 5 0 1
1702 341 3 0 -1.0318744348092608 -8.492250330875386 -8.793844800031362 6 0 1
2783 642 4 0 -2.938174756176614 -8.104348518273703 -8.638145451662536 5 0 1
723 145 3 0 -2.923204293957914 -7.806054680879405 -8.372147013327458 16 1 0
721 145 1 0 -2.7612113543249572 -7.457238877728661 -8.148825686841043 16 1 0
724 145 3 0 -2.3294124998963097 -7.44676500997282 -8.215607067589216 16 1 0
2651 598 4 0 -1.9637462612687901 -7.595156812098558 -8.156899946884998 4 0 0
2650 598 2 0 -1.7984075169398857 -7.80125127152514 -8.513122048052743 4 0 0
2652 598 4 0 -1.636228416756854 -8.02065049010149 -8.88366622379912 4 0 0
698 140 3 0 -8.982714147318658 -6.966922904846892 -8.124444001591216 -2 -1 2
2493 545 4 0 -3.878571472511684 -6.696318620906114 -8.734711936833564 11 1 0
722 145 3 0 -2.948852560423977 -7.061405085905917 -8.314564639472398 16 1 0
2491 545 2 0 -3.5506828171262708 -6.744957995598499 -8.446746374572928 11 1 0
2492 545 4 0 -3.226556891663133 -6.808837189458944 -8.15237127357869 11 1 0
1400 280 3 0 -0.04010360802866586 -7.123316980821546 -8.481973247880658 3 0 -1
1727 346 3 0 -4.868599861014239 -6.195699120472918 -8.664220979137307 19 2 1
1729 346 3 0 -4.165534162036045 -6.405481109352437 -8.702991213211911 19 2 1
1726 346 1 0 -4.435953787368002 -6.057828246921169 -8.735379385627324 19 2 1
1728 346 3 0 -4.324329948200675 -5.738903244165627 -8.426362952465393 19 2 1
208 42 3 0 -6.204069168396897 -4.790266608757106 -8.82055671233254 4 0 0
2370 504 4 0 -4.141770172352807 -5.457463038198323 -8.18859259566489 4 0 0
1777 356 3 0 -9.421176488451449 -4.18678512549676 -8.381184459063677 8 0 0
2606 583 4 0 -9.642741938373089 -4.401171176058551 -8.137082797194708 5 0 1
207 42 3 0 -6.7579838645453005 -4.7406946056475485 -8.311306098526167 4 0 0
209 42 3 0 -6.1414240979621315 -4.2757345805975 -8.230677587692547 4 0 0
206 42 1 0 -6.308212014716405 -4.7163150049310145 -8.36676191522855 4 0 0
1780 356 3 0 -9.11784894011561 -3.6624092414473974 -8.7928123412403 8 0 0
1776 356 1 0 -9.219294663176443 -3.78431909459929 -8.380005254528129 8 0 0
1778 356 3 0 -9.50468306984924 -3.46645133828686 -8.190799022987054 8 0 0
2429 524 4 0 -9.853544154775566 -3.5334895684710634 -8.38333267113844 14 1 1
1779 356 3 0 -8.842020635266817 -3.799590311510306 -8.12454496742614 8 0 0
862 173 3 0 -9.82286425451878 -1.5518913926369144 -9.032208136425956 13 1 1
861 173 1 0 -9.56164334095885 -1.3170847032276427 -8.745333793059316 13 1 1
864 173 3 0 -9.312251749268341 -1.6153053247640798 -8.472548107429944 13 1 1
2335 493 2 0 -7.099512242576147 -1.7934056458445156 -8.693969263784737 8 0 -1
2337 493 4 0 -7.061167720949837 -1.8888568097569909 -8.236178380739032 8 0 -1
1235 247 3 0 -4.081052556048162 -1.3553885615867056 -8.213163760765084 11 0 -1
865 173 3 0 -9.276601117468141 -1.044911508369463 -8.987346259455945 13 1 1
863 173 3 0 -9.829397615430594 -1.0607518074588107 -8.488265677338994 13 1 1
538 108 3 0 -6.998459909195849 -0.6142244605542846 -8.277595793398387 -4 -2 -1
3344 829 4 0 -6.0699657613229 -1.1173588541615977 -8.327208080088305 15 1 0
1233 247 3 0 -3.6014912390361946 -0.8097489118886187 -8.428464930996148 11 0 -1
540 108 3 0 -7.726767761471903 -0.4185744082156386 -8.224921653572354 -4 -2 -1
916 184 1 0 -0.36794633727300763 0.06545420829652748 -8.84607290196604 3 0 0
917 184 3 0 -0.5929779488024867 -0.004470505014461779 -8.471940532113255 3 0 0
2505 549 4 0 -5.812545026460894 0.5897873435823637 -8.165208695193163 0 -1 0
2504 549 4 0 -6.182599057511897 0.7782169610370673 -8.969954769057818 0 -1 0
2503 549 2 0 -6.0036975595907185 0.6892316199875932 -8.581169345975187 0 -1 0
919 184 3 0 -0.506149482416383 0.4524560137789315 -9.032923660006057 3 0 0
1191 239 1 0 -4.090023417342769 2.8992787499568795 -8.35951411545815 20 1 0
1193 239 3 0 -4.3536760801996985 2.630175504755501 -8.149939243971813 20 1 0
1192 239 3 0 -3.6843257528856013 2.8126548412529964 -8.261487422324958 20 1 0
1195 239 3 0 -4.149301243795208 2.852058073489321 -8.805385766090502 20 1 0
2138 428 3 0 -5.73384935755954 3.909332893532781 -8.978758077274293 10 0 2
1194 239 3 0 -4.192605453723744 3.3155393385090832 -8.231037295331026 20 1 0
2950 698 2 0 -0.17723674468491524 3.7768244819228016 -8.551101431861097 10 0 0
2951 698 4 0 -0.4699191996572907 3.516578022288339 -8.3467791308196 10 0 0
2941 695 2 0 -6.380457244177171 4.374216150554652 -8.803776668797365 13 0 1
2943 695 4 0 -6.744770255149146 4.640337445061018 -8.850542047691913 13 0 1
2942 695 4 0 -6.014186904931162 4.113064986809816 -8.748692681754566 13 0 1
1530 306 3 0 -2.456035150367482 4.241288079748751 -8.456004319473678 12 0 1
1526 306 1 0 -2.385314427678198 4.68912294768824 -8.472447653372285 12 0 1
2772 638 4 0 -2.959185371271901 5.2045425898081845 -8.254584702079432 12 0 1
1528 306 3 0 -1.9980258716536206 4.791268928312286 -8.27040739241308 12 0 1
1527 306 3 0 -2.378609229909781 4.822076754162252 -8.890853500003363 12 0 1
1529 306 3 0 -2.7199929498986286 4.895017125691851 -8.263464713679097 12 0 1
2725 623 2 0 -5.593359422343566 6.299830845427728 -8.907556011624518 -6 -2 -1
1855 371 3 0 -6.102163826616604 6.513635258050964 -8.372375627600574 5 -1 1
1854 371 3 0 -6.7898752746481446 6.724244349711732 -8.288862831012201 5 -1 1
2726 623 4 0 -5.83457048680392 6.583810541921331 -8.653161077170324 -6 -2 -1
1851 371 1 0 -6.339402903951127 6.850113020590381 -8.26282626597297 5 -1 1
1852 371 3 0 -6.2680664848454555 7.192181822138963 -8.547599991871198 5 -1 1
2765 636 4 0 -0.25583531025243467 9.04035716968773 -8.631093987830083 4 -1 2
3027 723 4 0 -9.426893694051191 9.517345937013516 -8.139539565980625 5 -1 1
866 174 1 0 -9.725095091121345 9.569504153141878 -8.855056289479872 11 0 2
867 174 3 0 -9.676796411517136 9.502219361738465 -8.417973320726926 11 0 2
440 88 3 0 -0.4730331280543858 9.31577810152502 -8.84499325681169 10 0 1
2764 636 2 0 -0.12751801919532468 9.173691880071061 -8.231451460433753 4 -1 2
2177 440 4 0 -3.611277925061959 -9.503856747875947 -7.345910233406281 5 0 0
2738 627 4 0 -8.311897757793393 -8.32739398741166 -7.18869062483237 5 0 -1
1475 295 3 0 -4.549553397149628 -8.554989772124713 -7.551995060455065 14 2 -1
2176 440 2 0 -3.665894349273251 -9.08734086133228 -7.489584026998457 5 0 0
1472 295 3 0 -3.836670228192527 -8.343975777062445 -7.775152942676006 14 2 -1
2178 440 4 0 -3.7085206239966286 -8.663201163358151 -7.635707631104604 5 0 0
2739 627 4 0 -8.690189314173075 -7.57936941473059 -7.517989332281673 5 0 -1
2737 627 2 0 -8.512108095903804 -7.94164257700771 -7.363044314346666 5 0 -1
700 140 3 0 -9.018246534081968 -7.573960833153318 -7.7668276392258795 -2 -1 2
1474 295 3 0 -4.413126344276868 -7.920980233887894 -7.902967390002094 14 2 -1
1471 295 1 0 -4.2479714414483425 -8.182361162440436 -7.617932152429576 14 2 -1
1473 295 3 0 -4.185345154628441 -7.956905802440055 -7.227964983269942 14 2 -1
725 145 3 0 -2.8452950821172234 -7.496170549529776 -7.710870440431219 16 1 0
697 140 3 0 -9.617432183269482 -7.183291151651053 -7.8384570011101316 -2 -1 2
696 140 1 0 -9.173963306236436 -7.166814703399104 -7.787418416550352 -2 -1 2
699 140 3 0 -9.068127753684912 -6.937057762644607 -7.3891886019391215 -2 -1 2
210 42 3 0 -6.109854240186419 -5.0400377866715615 -8.094655783378496 4 0 0
2368 504 2 0 -4.134227333150049 -5.351932576443734 -7.76958221191724 4 0 0
2369 504 4 0 -4.127836365575872 -5.231423841043146 -7.321501995659419 4 0 0
2863 669 2 0 -7.208496893361763 -1.385133918219747 -7.205706681859762 11 1 -1
3343 829 2 0 -6.0385067757607915 -1.49648005833828 -8.059889366347464 15 1 0
3345 829 4 0 -6.012062348910446 -1.875913186338046 -7.799092005960023 15 1 0
83 17 3 0 -6.126373209219745 -1.7229853892751237 -7.447106689226249 15 1 0
539 108 3 0 -7.431938131942369 -0.8990804207816225 -7.724302840439676 -4 -2 -1
2865 669 4 0 -7.4710567978208635 -1.2499440794760392 -7.549511994704505 11 1 -1
536 108 1 0 -7.3479025355666385 -0.533911037817207 -7.973272806805225 -4 -2 -1
1231 247 1 0 -3.8299630998401026 -1.0021179306911279 -8.058700263055929 11 0 -1
1232 247 3 0 -4.1253565659923455 -0.6670118626031236 -7.867144541379787 11 0 -1
3395 846 4 0 -4.495577870094774 -0.7541084943928809 -7.7867028310923585 6 0 -1
1234 247 3 0 -3.5129586313672334 -1.1516939648699225 -7.741656381497235 11 0 -1
537 108 3 0 -7.2403307353364035 -0.19668875083734072 -7.701332643837149 -4 -2 -1
3367 837 2 0 -6.63519001915621 0.3455047843161658 -7.676148947350219 9 0 1
3368 837 4 0 -7.006001335195391 0.11242831244329388 -7.637985946277466 9 0 1
1371 275 1 0 -5.513298606574982 0.3900143748278886 -7.60229122170292 12 1 1
1375 275 3 0 -5.959272673508375 0.3662556096381291 -7.5386628599888965 12 1 1
3396 846 4 0 -5.078214257282992 -0.060253860196162634 -7.8864272668866695 6 0 -1
1372 275 3 0 -5.32721725619295 -0.008281445590249348 -7.559981428619996 12 1 1
3394 846 2 0 -4.79775155238932 -0.3977635855450501 -7.837295388635166 6 0 -1
3369 837 4 0 -6.272739340122171 0.5783979274962441 -7.705601472445212 9 0 1
1374 275 3 0 -5.430426048013249 0.5614311974730661 -8.055980533678557 12 1 1
1373 275 3 0 -5.32841135299765 0.6659921410591512 -7.299547452670353 12 1 1
2917 687 2 0 -4.494963224571685 2.3936253928494295 -7.455126512849436 16 1 0
2918 687 4 0 -4.290925317725752 2.341336707405466 -7.876317452678897 16 1 0
1495 299 3 0 -0.908537180055804 2.8914225042764308 -7.903851197127064 13 1 -1
1493 299 3 0 -1.347442915292671 3.4970058840854374 -7.772160407055775 13 1 -1
2946 696 4 0 -1.4302714846775402 3.863868025666017 -7.65066285662781 13 0 0
1494 299 3 0 -0.6347927999417191 3.5637661009406862 -7.981524179647336 13 1 -1
1491 299 1 0 -0.9089670737863855 3.3148306081028878 -7.742086056308987 13 1 -1
1492 299 3 0 -0.7669441205104484 3.316119339317007 -7.308389039928267 13 1 -1
2945 696 4 0 -1.9111811174707523 4.515466768915584 -8.024445219054373 13 0 0
2944 696 2 0 -1.6697061411717335 4.1837215927678795 -7.835789178290577 13 0 0
2107 422 3 0 -3.8534956841059387 4.904051101697821 -7.4568019065163575 4 -1 1
2771 638 4 0 -3.6040112935490267 5.149189044867333 -7.673228836123644 12 0 1
2770 638 2 0 -3.277865324577567 5.181237531619711 -7.970499415474245 12 0 1
1853 371 3 0 -6.237567368358663 6.9693787087313055 -7.858045789413394 5 -1 1
1128 226 3 0 -1.0501232454221743 7.632936762715161 -7.538174497497197 28 2 1
1126 226 1 0 -1.2431640133134838 8.018633717995037 -7.529276519114466 28 2 1
1130 226 3 0 -1.345376411833449 8.149551719415456 -7.9612411364381135 28 2 1
1129 226 3 0 -1.6198571192886284 7.981513616745751 -7.294449999574237 28 2 1
3026 723 4 0 -8.946997646881583 8.938030966484515 -7.648991513941428 5 -1 1
188 38 3 0 -8.868626801686268 9.11024689249556 -7.294634483860184 6 -1 1
1127 226 3 0 -0.9718452920763472 8.30672064233638 -7.336898539622343 28 2 1
3025 723 2 0 -9.189617933880939 9.22495743020912 -7.896785673883616 5 -1 1
190 38 3 0 -8.442015057694435 9.718026582394316 -7.216263263396791 6 -1 1
2441 528 4 0 -8.183379781157097 -9.945061437162975 -7.1369772733942405 14 1 0
2442 528 4 0 -7.946842366178425 -9.322467594837653 -6.545809285255512 14 1 0
2440 528 2 0 -8.05976841491659 -9.634064265984708 -6.843593640140025 14 1 0
1505 301 3 0 -3.84348427329829 -9.593041387038328 -6.3123033456192585 3 -1 0
1504 301 3 0 -3.5655444433062335 -9.633842015406128 -6.968285891206932 3 -1 0
1501 301 1 0 -3.530065199328936 -9.77933826407159 -6.53537127893953 3 -1 0
1503 301 3 0 -3.1353966216368745 -9.66929000320185 -6.36413496587763 3 -1 0
3307 817 2 0 -0.14843212025754404 -9.521375861574414 -6.338036297048957 5 0 0
68 14 3 0 -8.160444213163721 -9.029218432687518 -6.374443942496365 10 1 0
66 14 1 0 -8.100426404544704 -8.58687503900262 -6.4039660683734105 10 1 0
2841 661 4 0 -7.434672998977431 -8.51421139048066 -6.589856671011479 12 1 -1
69 14 3 0 -8.168451441863946 -8.444500372414346 -6.819474696250618 10 1 0
70 14 3 0 -7.670629437864834 -8.472871221060041 -6.26118765381298 10 1 0
2839 661 2 0 -6.996284323904197 -8.55104708914681 -6.523416571054779 12 1 -1
2840 661 4 0 -6.544245740315599 -8.594112589802362 -6.4552279261490675 12 1 -1
3222 788 4 0 -3.2144954673715276 -8.299944677202888 -6.4146335466138185 17 2 0
133 27 3 0 -2.3192191733653083 -8.578971900130771 -6.2798245395612895 16 2 0
3221 788 4 0 -3.977525976764511 -8.062453628091967 -6.882247355532183 17 2 0
3220 788 2 0 -3.605817387776325 -8.177405528840417 -6.654798523414485 17 2 0
3378 840 4 0 -0.8044196981084184 -8.072339127409288 -7.019422598541514 11 1 0
3376 840 2 0 -0.8519244771961301 -7.634548053529788 -7.022975849538364 11 1 0
2287 477 2 0 -9.115431216387993 -6.524991538918516 -6.681491243761611 2 0 1
2288 477 4 0 -9.003032997528953 -6.693755091396238 -7.065908324377698 2 0 1
3401 848 4 0 -4.348357726779159 -7.185145809333931 -6.449939290361894 2 0 0
3377 840 4 0 -0.9087999991189797 -7.171470727748085 -7.00746209944806 11 1 0
2289 477 4 0 -9.224721072022561 -6.353635607982586 -6.2923361933984685 2 0 1
3106 750 2 0 -3.7228526501302976 -6.323603418156292 -6.32289797286184 4 0 -1
3107 750 4 0 -3.9394838634574336 -6.020122769246904 -6.559235226881958 4 0 -1
1273 255 3 0 -3.697498647230633 -5.715208517902845 -6.714941480035428 -3 -1 -1
1274 255 3 0 -3.815115678758282 -5.081404105756368 -7.1013539952043105 -3 -1 -1
1272 255 3 0 -3.7175149349944236 -5.072304239763658 -6.373404049813202 -3 -1 -1
1271 255 1 0 -3.5943276645209377 -5.271301065198417 -6.736233361674385 -3 -1 -1
1275 255 3 0 -3.124849310027641 -5.230436416577406 -6.801347658927037 -3 -1 -1
84 17 3 0 -6.5459623893474985 -1.5702747293649963 -6.826637868937386 15 1 0
2864 669 4 0 -6.941868249038751 -1.5242419547701438 -6.85707770860257 11 1 -1
81 17 1 0 -6.132145683854118 -1.725189090160736 -6.981964718373373 15 1 0
82 17 3 0 -6.0725879043218 -2.139404945918466 -6.842459338149286 15 1 0
85 17 3 0 -5.804722628083525 -1.4629751025193976 -6.831845829377135 15 1 0
490 98 3 0 -5.00263327805626 -2.1189048257691834 -6.6351084939304386 2 0 -1
486 98 1 0 -4.877854886762721 -2.085124616087475 -6.211048624416264 2 0 -1
589 118 3 0 -7.324243064312451 -0.08981353688935734 -6.498944592365881 10 1 1
586 118 1 0 -7.018939105951268 0.018276159870891817 -6.214906196326228 10 1 1
590 118 3 0 -6.707291125768773 0.2425110975318372 -6.414612164331036 10 1 1
3314 819 4 0 -5.499339365363582 0.8235956643180025 -6.957396653544896 13 1 0
3313 819 2 0 -5.665816901091735 1.1286050636418548 -6.644639245564904 13 1 0
3315 819 4 0 -5.833765838594268 1.4183979678401784 -6.343423715587674 13 1 0
1879 376 3 0 -6.216855413749776 1.5008829861995991 -6.3315522114944836 7 0 0
1810 362 3 0 -5.770983752858089 2.551402710343746 -7.072696126015849 12 0 1
1807 362 3 0 -5.523380280427238 2.9064417307345813 -6.465857726747428 12 0 1
2919 687 4 0 -4.68346901856377 2.451402088953447 -7.055645877378839 16 1 0
1808 362 3 0 -5.042895227469834 2.6105901532790483 -6.925568321154607 12 0 1
1809 362 3 0 -5.444483062838667 2.18813001090367 -6.498828777694346 12 0 1
1806 362 1 0 -5.440608994305166 2.5628518088517396 -6.732831491388945 12 0 1
1637 328 3 0 -8.989429635050357 3.5217360023509325 -6.581143187215293 19 1 1
1636 328 1 0 -8.946401555930972 3.857568606560857 -6.264406224124759 19 1 1
1640 328 3 0 -9.231855434077255 4.20050718995822 -6.367932685599135 19 1 1
1639 328 3 0 -8.533536504205493 3.996049548346532 -6.253699899345907 19 1 1
614 123 3 0 -7.786977910759258 4.181497974941365 -6.2091878121175395 8 0 0
2110 422 3 0 -3.974457039542683 4.774288132463482 -6.743201882935538 4 -1 1
2109 422 3 0 -4.267382104837246 5.386816007852628 -7.073531407247675 4 -1 1
2106 422 1 0 -3.901508936333151 5.100735127364695 -7.062491301989802 4 -1 1
2108 422 3 0 -3.5154525547773154 5.343469416240447 -6.950012719263591 4 -1 1
2690 611 4 0 -4.60550783694781 6.450707748146783 -6.3562989284549145 11 0 -1
2691 611 4 0 -4.344409678342612 5.698047253060086 -6.823088379660707 11 0 -1
2689 611 2 0 -4.480006708131652 6.073338502602407 -6.588347780500017 11 0 -1
999 200 3 0 -4.297671128753303 8.071083959070876 -6.270943527442556 4 -1 0
2671 605 2 0 -1.7223062169154826 7.754112156629347 -6.553059391795568 4 -1 1
2672 605 4 0 -1.6218970069626142 7.730787838531228 -6.98453592129356 4 -1 1
187 38 3 0 -8.182430197683944 9.056450416818855 -7.026103067141327 6 -1 1
1000 200 3 0 -3.8567992128644324 8.355527643295687 -6.7563809764856755 4 -1 0
996 200 1 0 -4.095732174280134 8.445972285556437 -6.408763106957807 4 -1 0
997 200 3 0 -4.399390859680467 8.757138374084558 -6.511217359683474 4 -1 0
3331 825 2 0 -0.799091694052068 8.874588250132717 -6.7465400902801616 12 0 1
3333 825 4 0 -0.8972160316405748 8.551502195435575 -7.015372950057506 12 0 1
186 38 1 0 -8.54810827111405 9.307666791860395 -7.0353623478038125 6 -1 1
189 38 3 0 -8.711651639708752 9.366056663503997 -6.590301871185281 6 -1 1
2906 683 4 0 -8.60183737669648 9.28825901857218 -6.218741882506804 4 -1 0
1502 301 3 0 -3.582707312829222 9.769604424213234 -6.517183471546172 3 -2 0
3332 825 4 0 -0.6899085169145582 9.224446792879096 -6.454519607657561 12 0 1
3298 814 2 0 -3.0580408245825685 -9.47077420377154 -5.320809178765751 17 2 -1
965 193 3 0 -0.7166501750974099 -9.985271532854902 -5.935564516013292 13 1 1
3308 817 4 0 -0.47091616688267024 -9.754177573353674 -6.152109527258778 5 0 0
67 14 3 0 -8.398632964167156 -8.392487495016569 -6.141673177748352 10 1 0
1238 248 3 0 -6.339962649973376 -8.560678660807202 -6.105812824318191 4 0 -1
1236 248 1 0 -6.179458016656047 -8.584636118020697 -5.686134660342386 4 0 -1
1237 248 3 0 -6.291327922741957 -8.961622432751515 -5.504973366971703 4 0 -1
1240 248 3 0 -5.7141871845490115 -8.547626181560775 -5.696704419889493 4 0 -1
132 27 3 0 -2.9851043389654297 -8.418990081719992 -6.089132627357836 16 2 0
3299 814 4 0 -3.0199169938337436 -9.093625077360407 -5.580518399150403 17 2 -1
135 27 3 0 -2.6878946742913303 -8.983932855134466 -5.787062103099838 16 2 0
131 27 1 0 -2.6256506125187142 -8.56854902398776 -5.9370974962427026 16 2 0
134 27 3 0 -2.467636210070417 -8.300548574419764 -5.592920902086641 16 2 0
1239 248 3 0 -6.359439524176766 -8.221958242845481 -5.433229346259746 4 0 -1
3237 793 4 0 -1.9369277157115619 -7.68870770147332 -5.464089523260586 12 1 1
3402 848 4 0 -5.041211286985179 -6.931146647720109 -5.894787890539069 2 0 0
1347 270 3 0 -5.332073892446046 -6.844680144062853 -5.617101670209118 5 0 0
1346 270 1 0 -5.415493703920614 -6.563904863501725 -5.269899556336516 5 0 0
3400 848 2 0 -4.6908232690840705 -7.058393888052542 -6.179142119928218 2 0 0
3108 750 4 0 -3.493652300261986 -6.6409220443165795 -6.077573121038675 4 0 -1
1434 287 3 0 -3.1425192659304715 -6.62477080002869 -5.855934557225729 13 1 1
1435 287 3 0 -2.71475585020171 -6.775791713105525 -5.287623128375864 13 1 1
3236 793 4 0 -2.3789278406780223 -6.914759805569874 -5.495195102511052 12 1 1
3235 793 2 0 -2.146575467628118 -7.320183983833688 -5.481352422959011 12 1 1
1350 270 3 0 -5.588606235057075 -6.198518913500665 -5.417963840521464 5 0 0
2736 626 4 0 -5.825192385204556 -5.945724626148089 -5.593000093353801 3 0 1
2734 626 2 0 -6.208936886584183 -5.783057573033702 -5.4405348438973595 3 0 1
1431 287 1 0 -3.0401522275311166 -6.50523545333839 -5.445914327312485 13 1 1
1432 287 3 0 -2.887310072983434 -6.103906520414845 -5.437047196450203 13 1 1
2735 626 4 0 -6.596840391661107 -5.623722117074993 -5.294352573862852 3 0 1
1247 250 3 0 -5.837060513317247 -4.206553836416042 -5.627103639105128 4 0 -1
1250 250 3 0 -6.484825902365843 -3.897531399167522 -5.703954926687722 4 0 -1
1249 250 3 0 -5.916624628909574 -3.7161096972293866 -6.156538285682442 4 0 -1
1246 250 1 0 -6.035379418871528 -3.8398145896312075 -5.727440340803943 4 0 -1
1248 250 3 0 -5.908668663456006 -3.4949272148545543 -5.430935343992629 4 0 -1
2729 624 4 0 -5.658173399366346 -3.185004992061348 -5.3686495986934935 8 0 1
2728 624 2 0 -5.507809385263315 -2.8852819964550447 -5.656447913150535 8 0 1
487 98 3 0 -5.179695349875081 -2.228095707597384 -5.959494852719461 2 0 -1
2730 624 4 0 -5.349840405103981 -2.5713176272253504 -5.950371144031089 8 0 1
489 98 3 0 -4.495018168771566 -2.3172994235079702 -6.142860728392295 2 0 -1
1839 368 3 0 -0.12712886226437803 -2.5685802140208924 -5.7222018270580906 11 0 0
488 98 3 0 -4.80783956145506 -1.6588976774499447 -6.109372663271173 2 0 -1
2427 523 4 0 -4.520241218352735 -1.3358552859599442 -6.033738388265708 7 0 0
1595 319 3 0 -1.9155005008542343 -1.4813153557386585 -5.279792417191141 15 1 0
1838 368 3 0 -0.19925000576296625 -1.9635409820475154 -5.351777274502567 11 0 0
2916 686 4 0 -0.3430941894428372 -1.6023449063742863 -5.463275747778641 11 0 0
2914 686 2 0 -0.6341184016062762 -1.3177704855982775 -5.269622617627829 11 0 0
2777 640 4 0 -7.0521901995426965 -1.2216233279151503 -5.282705609002227 9 0 1
2776 640 2 0 -7.07905932946502 -0.9273906065010671 -5.640000538591235 9 0 1
2778 640 4 0 -7.115243604857719 -0.6248585120458046 -6.019598326512418 9 0 1
583 117 3 0 -5.638867123585315 -0.43871168189035536 -5.916458290809439 8 0 0
2687 610 4 0 -5.795234569582098 -0.8474014239158336 -5.289759408524299 5 0 0
2425 523 2 0 -4.147018469665981 -1.0832395375003046 -5.8520831396135495 7 0 0
2426 523 4 0 -3.8036139225038106 -0.8530976009343725 -5.680792207308997 7 0 0
1904 381 3 0 -3.4975862661853787 -0.9088735813176907 -5.43473283527837 17 1 2
588 118 3 0 -6.84727156143528 -0.3318604235177709 -6.0513783264555405 10 1 1
587 118 3 0 -7.210424277834075 0.2731118077323451 -5.871595651652706 10 1 1
581 117 1 0 -5.554989128918689 -0.23113126604822654 -5.509187507639299 8 0 0
3182 775 4 0 -6.029966626621025 0.4103502188528356 -5.276585168371736 13 1 0
584 117 3 0 -5.91656131404905 0.05538382298906619 -5.404798797533806 8 0 0
585 117 3 0 -5.175827550887044 0.007057362413849688 -5.525776801497289 8 0 0
2985 709 4 0 -4.872482709745026 0.22269826938834214 -5.719738511547806 13 1 0
2983 709 2 0 -4.461650930723079 0.11075027370518953 -5.5230810554286744 13 1 0
2984 709 4 0 -4.07347373882073 -0.0017677425251090284 -5.336256070434559 13 1 0
2604 582 4 0 -7.517525980284895 0.46873152915650707 -5.714038714590593 7 0 1
2602 582 2 0 -7.529638053817927 0.9223441828133296 -5.694736680924914 7 0 1
3183 775 4 0 -6.104850280745884 1.2681866579877337 -5.346694779241853 13 1 0
3181 775 2 0 -6.067682053488901 0.8440161870213796 -5.313494524130072 13 1 0
1134 227 3 0 -8.358064757844442 2.046123302452907 -5.476102789221457 11 0 -1
2603 582 4 0 -7.537979407750544 1.3730964427969443 -5.670052285935851 7 0 1
1132 227 3 0 -7.784097443536714 1.6126382448107002 -5.453322553359002 11 0 -1
1131 227 1 0 -7.9932491601062505 1.9527892530074986 -5.258871411986125 11 0 -1
1877 376 3 0 -6.913769361520773 1.5936398440600623 -6.121791052551517 7 0 0
1878 376 3 0 -6.383394647378333 1.4347049255819684 -5.628765635486944 7 0 0
1880 376 3 0 -6.390936189768703 2.12513564278459 -5.94372711157763 7 0 0
1876 376 1 0 -6.477106181377694 1.6567737856406932 -6.006513711452839 7 0 0
3175 773 2 0 -7.767666083190614 3.0056472716431326 -5.338868716215643 10 0 0
1133 227 3 0 -7.725289974472789 2.3033741287042844 -5.27075223832491 11 0 -1
3197 780 4 0 -9.180279641371957 3.3723259009064073 -5.68250070817329 14 1 0
3196 780 2 0 -9.456771009561749 3.3830077141577704 -5.324412029091638 14 1 0
1638 328 3 0 -9.053342133886042 3.6986397453828967 -5.854723742467715 19 1 1
3177 773 4 0 -7.64665214936505 3.374210771147796 -5.5818955916794 10 0 0
612 123 3 0 -7.516040209355561 3.7534363099178094 -5.673717313273537 8 0 0
549 110 3 0 -6.107241243716043 3.8118663690032584 -5.282401581311347 -4 -2 -1
611 123 1 0 -7.444514418885145 4.130198543011289 -5.9303991967546565 8 0 0
615 123 3 0 -7.428222812552573 4.465531583633545 -5.668404459739708 8 0 0
2327 490 4 0 -7.710762230504399 4.697582676697767 -5.514185302065688 4 -1 -1
613 123 3 0 -7.0796998040601 4.0884609275020125 -6.1479207239224545 8 0 0
2326 490 2 0 -7.537364823699854 5.107497730745649 -5.4052016659948405 4 -1 -1