LAMMPS data file via write_data, version 29 Aug 2024, timestep = 2000001, units = lj

1520 atoms
4 atom types
1020 bonds
1 bond types

-6.932675 6.932675 xlo xhi
-6.932675 6.932675 ylo yhi
-6.932675 6.932675 zlo zhi

Masses

1 1
2 1
3 0.5
4 0.5

Bond Coeffs # zero

1 0

Atoms # bond

1032 338 2 -6.867829750052638 -5.517767329268122 -6.633728741612887 0 2 -1
798 260 2 -6.779983886481026 4.75890577208273 -5.547943465461614 3 2 2
169 50 4 -2.8616009887965994 -3.826594516838236 -6.8055920208382075 0 0 0
83 21 4 -6.700833442664009 0.0743913201744274 -4.0575482306970905 -1 -2 4
994 325 4 -5.301110304038444 -4.283370332656604 -6.296198202216482 4 -3 0
435 139 2 -3.5194587173649907 -5.358569036427132 -6.492249857813645 0 1 2
437 139 4 -3.9647524932103932 -5.573370172896791 -6.417561547210427 0 1 2
436 139 4 -3.0741602682346385 -5.143779377872551 -6.566937180786998 0 1 2
1143 375 2 -2.3291036610200786 -5.203559115830675 -6.748351227082406 1 3 1
1144 375 4 -2.7602446659368454 -5.4289000435765615 -6.863854335402094 1 3 1
1145 375 4 -1.8979677783635895 -4.978214765088116 -6.632856697202968 1 3 1
995 325 4 -5.800340889346003 -5.149729162257931 -6.310516745795831 4 -3 0
993 325 2 -5.55073000852768 -4.716555341985009 -6.303362150093458 4 -3 0
210 64 2 -1.932122996134766 -4.250052904098424 -6.284915511620852 -3 0 1
212 64 4 -2.1441476668178288 -4.2223332653127885 -6.736886600956548 -3 0 1
1006 329 4 -4.739750359924247 1.5238764379215295 -6.848498775222088 1 -1 2
1319 433 4 -2.9063455374691665 -1.6173120974628699 -6.5960417949256405 3 3 1
170 50 4 -2.650403466744231 -3.251084327861404 -6.015546188793872 0 0 0
1242 408 2 -0.4264054048725821 -2.9107725896992953 -6.696877398940369 1 3 2
1243 408 4 -0.5830477228738197 -2.437411089761548 -6.659578769562577 1 3 2
1433 471 4 -6.5901079652757915 -1.4600262955812637 -5.766565665160902 1 2 0
1317 433 2 -2.778607568850836 -1.2175560007550308 -6.324226873387682 3 3 1
1318 433 4 -2.6508691335921974 -0.8178019766371016 -6.052409309512953 3 3 1
683 221 4 -1.2110916125367348 -1.8381962579569848 -5.997622804261803 1 0 1
682 221 4 -0.9865382899659132 -2.2847645461551966 -6.863747524066361 1 0 1
681 221 2 -1.098817305172406 -2.0614831943868954 -6.430680793079694 1 0 1
243 75 2 -3.1493396707278687 6.050617676517943 -6.639188087024341 -1 4 1
33 7 3 -6.016967326150044 6.467734229644719 -6.707818635270399 0 0 0
662 214 4 -6.6746166269278495 -0.8772145209742828 -6.695238993518433 0 2 1
1303 428 4 -4.596753590165384 -0.05883823205679588 -6.608346864840937 2 -4 -2
1302 428 2 -4.237476441088574 -0.40459805361987244 -6.571386906600268 2 -4 -2
1304 428 4 -3.8781958062835944 -0.7503646176139435 -6.534427473238442 2 -4 -2
284 88 4 -2.4970079366194837 -0.3921760488382347 -6.320627707867989 -3 -3 0
282 88 2 -2.3754857628854946 -0.021578196904618072 -6.007752645849135 -3 -3 0
1256 412 4 -1.0612231945888981 -0.461629544328033 -6.015417605764209 0 1 1
1254 412 2 -0.5642374277023471 -0.4223500544550064 -5.9771915101227435 0 1 1
1282 421 4 -6.486735772667553 0.37949836032464707 -6.613574063783938 3 -2 1
507 163 2 -0.2103647093557534 -5.381743328705823 -1.1723983508777647 -1 1 3
550 177 4 -0.09303755555579084 4.6971108890024365 -5.520278860394009 0 0 1
932 304 4 -6.669242716821073 4.52438964140985 -0.30810913154226727 4 -1 2
1005 329 2 -4.6589306956747985 1.8826255628587076 -6.509723706486874 1 -1 2
1007 329 4 -4.578106272097212 2.2413662686650833 -6.170943245515566 1 -1 2
287 89 4 -4.111571701020496 2.9369009945757534 -6.449204379038204 -3 1 0
808 263 4 -3.2801698679737963 1.3127186102429536 -6.202496017306397 1 -3 0
807 263 2 -3.4381603105686533 1.0024785699829668 -6.561365835694099 1 -3 0
5 1 3 -2.553444842165142 2.0517323846152706 -6.289447517867637 0 -3 0
1341 441 2 -1.592043721498275 1.1964054913248694 -6.845704078448128 -1 0 1
1342 441 4 -1.4492008715500206 1.640172506235716 -6.664954578768487 -1 0 1
4 1 3 -1.8917677162100106 2.3578715521440543 -6.101386536500273 0 -3 0
2 1 3 -2.258182183660474 2.588462508188727 -6.715779984413411 0 -3 0
285 89 2 -3.846594651497157 2.834057301803489 -6.860555944831923 -3 1 0
221 67 4 -6.663374560017701 -2.6551422304273125 -3.949299596003165 1 0 0
191 57 4 -2.456274612581577 4.4577838857932495 -5.824923895715053 0 -3 0
1 1 1 -2.1642513293436534 2.2234375856941844 -6.452080405212455 0 -3 0
3 1 3 -1.9458770563790047 1.9048341831483724 -6.709205776909348 0 -3 0
1450 477 4 -1.007328758159193 2.403173483462077 -6.390411802894709 2 -1 4
1378 453 4 -6.21596787214219 4.447855358695191 -5.0012088292152495 1 -3 0
1377 453 2 -5.852097287985637 4.73158532934388 -5.193828809897001 1 -3 0
1379 453 4 -5.488249404808182 5.015317086001843 -5.386458847920808 1 -3 0
775 252 4 -3.466647298614117 4.0828135922841415 -6.218506465767993 3 1 -1
774 252 2 -3.7128427796655443 4.023329230200503 -6.649623683438129 3 1 -1
1419 467 2 -6.851789686755183 -6.569501888056083 -6.296724976842975 1 1 2
189 57 2 -2.2992583830903643 3.993091127371136 -5.727962282597826 0 -3 0
479 153 4 -5.173417432439018 4.593799935533671 -5.445592365011381 2 2 3
477 153 2 -4.9325048939846825 4.790274794222581 -5.837208163972542 2 2 3
478 153 4 -4.691577790357071 4.986745797968457 -6.228794483386469 2 2 3
1334 438 4 -1.400525844994163 5.893345574318538 -6.6640005464308425 1 -2 1
1332 438 2 -1.8766658530078657 5.778010621017591 -6.763969702559384 1 -2 1
245 75 4 -3.5330630044166074 6.169767631905455 -6.341604436454135 -1 4 1
1420 467 4 -6.628463709814302 6.930980494010501 -6.555582150494899 1 0 2
34 7 3 -6.542117500455993 5.935901872506245 -6.8455657534765395 0 0 0
1333 438 4 -2.3528068051774262 5.6626772887493955 -6.863935515795611 1 -2 1
259 80 4 -1.5626822660818498 6.718330226623618 -6.293842215098732 -2 -2 2
260 80 4 -1.7525116939985523 -6.6292728293503504 -5.459628332316195 -2 -1 2
258 80 2 -1.6576051785190238 -6.888138473495445 -5.876734754080596 -2 -1 2
514 165 4 -1.363548543646004 -6.333130876232843 -5.466748722576069 2 3 2
513 165 2 -1.1335296071032408 -6.014671049605003 -5.157430585434347 2 3 2
168 50 2 -2.7559972105298094 -3.5388397420394053 -6.410569092272035 0 0 0
938 306 4 -0.24455862582677365 -6.572200781719382 -5.31462491828407 -1 -2 -1
1417 466 4 -1.2003170806498002 -5.286232191338138 -4.956475264186672 2 -4 -1
1416 466 2 -1.4151128047037138 -4.885111487984303 -5.163790812435487 2 -4 -1
515 165 4 -0.90351152452334 -5.6962122082595465 -4.848114376017752 2 3 2
211 64 4 -1.7200884303293749 -4.2777724415753315 -5.832935858861393 -3 0 1
1418 466 4 -1.6298984901704867 -4.483999122066177 -5.3711022917577855 2 -4 -1
343 108 4 -6.18859313443835 -1.1841277289293544 -5.524415789618645 0 1 -1
342 108 2 -6.01818715624539 -1.5286576915648553 -5.204622035154432 0 1 -1
894 292 2 -4.817557076200671 -0.8238505995941928 -4.546112276310405 1 -4 0
896 292 4 -4.68333762899227 -1.1193461244245533 -4.165762867809515 1 -4 0
1412 464 4 -1.6400072706562294 -1.847538911036981 -5.728180127329867 1 2 3
1411 464 4 -1.6092481687925044 -1.943008001902662 -4.733214932130673 1 2 3
1410 464 2 -1.6246218683120017 -1.8952718080724804 -5.230705357235512 1 2 3
1445 475 4 -1.7721624061500099 2.420241010064921 -0.294577458491336 0 0 1
1019 333 4 -0.15945112146318838 -1.6905344319476925 -5.0681810149558855 0 -1 1
344 108 4 -5.847785268145783 -1.8731773519060793 -4.884838396354534 0 1 -1
895 292 4 -4.951760940634142 -0.528342300243729 -4.926460151578198 1 -4 0
1330 437 4 -5.305733408473713 -0.5320449693056535 -5.278352767869602 1 1 2
1329 437 2 -5.656458969880398 -0.3172645439430246 -5.562715108177667 1 1 2
619 200 4 -3.6673388793605546 -1.1198868409296574 -4.851090786502586 -2 1 0
283 88 4 -2.253966630747764 0.34901835320147084 -5.694877847906831 -3 -3 0
1255 412 4 -0.06724910247067933 -0.38306384846200386 -5.938962954203238 0 1 1
1331 437 4 -6.007178228573864 -0.1024944747724424 -5.84708904439165 1 1 2
82 21 4 -6.82194436028973 0.24194502039839924 -5.035954470979713 -1 -2 4
152 44 4 -3.5210073847151646 0.9627026506831785 -5.614093415254583 -1 -2 1
151 44 4 -3.019504624469853 0.5219926345992554 -4.869613115156326 -1 -2 1
150 44 2 -3.2702587641500016 0.7423452296502787 -5.241844084420091 -1 -2 1
55 12 4 -2.682569119591348 0.31108785344739603 -4.5984290433503885 1 -2 1
371 117 4 -3.832313532533803 1.231171195235741 -5.298518302526889 2 1 0
369 117 2 -3.839026243453067 1.6910080498630367 -5.10228109610156 2 1 0
370 117 4 -3.845742022682141 2.1508487695181717 -4.906051551440793 2 1 0
548 176 4 -3.7109986223367235 2.6406384793435356 -4.8991688144036845 3 3 2
546 176 2 -3.5687044791346256 3.0621474848338166 -5.127389096742829 3 3 2
800 260 4 -6.300140372052834 4.74800728998899 -5.407747433789567 3 2 2
190 57 4 -2.142241579286171 3.5284011126104264 -5.630997670013691 0 -3 0
1020 334 2 -2.314452092220594 4.7267812247203524 -4.829325430191029 -2 -2 -3
1022 334 4 -2.342590136165003 4.2862109371845145 -5.064072424472429 -2 -2 -3
417 133 2 -3.1850870254156014 5.3532999874351175 -5.433893063463374 -1 1 -2
418 133 4 -2.70609335699002 5.223405214786208 -5.494638591894689 -1 1 -2
833 271 4 -4.037375484775998 6.757517259536815 -0.411598943287004 1 -1 1
419 133 4 -3.664057719897239 5.483164159784066 -5.37314389411174 -1 1 -2
887 289 4 -3.9544509605663403 5.483826339400825 -4.981016427301749 0 -2 2
1244 408 4 -0.2697550404981708 -3.3841319789919577 -6.7341935696085535 1 3 2
1465 482 4 -4.090505377850906 -5.442123552147006 -4.656327686104929 4 0 0
684 222 2 -4.569255985405525 -6.371962095694243 -4.505524344827618 0 0 0
685 222 4 -4.297432524506285 -5.9763438604828645 -4.645533282380422 0 0 0
1464 482 2 -3.764306302047735 -5.575441546600388 -4.3016192653810785 4 0 0
1466 482 4 -3.4381113672649692 -5.708763258310956 -3.946901670719216 4 0 0
355 112 4 -5.999447103475596 -3.083730408627834 -4.1981394935584175 2 2 1
1174 385 4 -6.638948559450917 1.2229739614441235 -0.27994679115717974 0 -2 2
457 146 4 -1.6366916730151324 -6.635607626306378 -0.2183592556139982 -1 0 -2
1219 400 4 -6.40835039866547 -2.1729733220280645 -4.091490014799639 0 2 -1
354 112 2 -5.958102093313723 -3.5151899874222154 -3.9488675577434087 2 2 1
356 112 4 -5.916774637824547 -3.9466458643566296 -3.699596099955889 2 2 1
920 300 4 -0.6164606001583265 -2.1448321834159394 -4.116127712345677 -2 -1 2
918 300 2 -0.7457268848256965 -2.587480450137852 -3.922861778274553 -2 -1 2
1218 400 2 -6.513844501101917 -1.8949162485346425 -3.6895602898703466 0 2 -1
1220 400 4 -6.619337548243801 -1.6168618196347055 -3.2876194202594555 0 2 -1
1481 487 4 -3.251415659935329 -1.1758839387660174 -3.463634118577962 1 -1 0
620 200 4 -3.3846601416895994 -0.9743580156736249 -3.9029783068154007 -2 1 0
919 300 4 -0.8749910230401975 -3.030141638202421 -3.7295967698514065 -2 -1 2
832 271 4 -3.3158424522837056 6.193838798117314 -0.009529993821534147 1 -1 1
618 200 2 -3.526000484728019 -1.047117494366696 -4.377034866650188 -2 1 0
218 66 4 -0.4046059436794306 -0.04947752727845397 -4.211048110539059 1 -1 -1
1121 367 4 -0.2924366543079714 0.0460820973769037 -3.7664532399642217 0 1 0
81 21 2 -6.761387766770073 0.15817159489533614 -4.5467527344414895 -1 -2 4
6 2 1 -6.1915501193768065 1.44244193147587 -3.5016266747954052 0 -1 0
7 2 3 -6.032229839612085 1.0212271127110955 -3.595407800209564 0 -1 0
733 238 4 -5.416380173682431 0.9343433844639196 -3.6495464975158125 1 -2 0
732 238 2 -5.1920289264506225 0.7260627934190067 -4.0448822679855665 1 -2 0
734 238 4 -4.967688293150404 0.5177895862844306 -4.440217151252423 1 -2 0
54 12 2 -2.469643505415576 0.6678482373904864 -4.320247505233975 1 -2 1
1119 367 2 -0.5486846259409288 0.347698184883774 -3.460897773704871 0 1 0
9 2 3 -6.623865570035885 1.4793561451604402 -3.6661037251675817 0 -1 0
56 12 4 -2.2567090946855113 1.0245911635307328 -4.042057900015871 1 -2 1
249 77 2 -2.0442665856449374 1.9598016605398347 -4.13173708268172 0 0 -1
251 77 4 -2.229025463504853 1.4984155118789626 -4.07686218245181 0 0 -1
250 77 4 -1.8595152836718114 2.421160904664492 -4.1866264179083705 0 0 -1
760 247 4 -6.166862916313863 3.6027562326447375 -4.476455219573233 3 0 1
1376 452 4 -4.488598789203204 2.1455758395050926 -4.165484314398607 -3 1 2
1374 452 2 -4.321506409652223 2.502291946443735 -4.473442998300853 -3 1 2
1375 452 4 -4.154418020778682 2.8590093030254904 -4.781401056789715 -3 1 2
547 176 4 -3.4264197517758244 3.483656549288147 -5.355613656699716 3 3 2
759 247 2 -6.655379023731844 3.5139749745628976 -4.535340878380155 3 0 1
1021 334 4 -2.2863141727839715 5.167348312636824 -4.594579952069584 -2 -2 -3
1355 445 4 -4.593331503125103 4.687430127182856 -5.286328530981238 0 -2 -1
1028 336 4 -5.4895448730088 4.891800473958284 -3.5691080220954485 0 -2 -1
1353 445 2 -4.8073313309039145 4.7185108057652805 -4.835522483331355 0 -2 -1
1354 445 4 -5.021361733611214 4.749622618145474 -4.384697145887536 0 -2 -1
351 111 2 -2.789857717400953 5.086984560084224 -3.612345563814132 2 1 1
353 111 4 -2.794099955854271 5.421284600858581 -3.9841293046793047 2 1 1
350 110 4 -0.5646796974147593 5.033995954680246 -3.6963397266668108 -1 -1 1
306 96 2 -3.871045540971635 -5.1366256589729264 -0.16130066636874135 -2 0 -1
403 128 4 -5.2981497339960075 5.940463523541052 -4.0068756763657785 2 1 -4
404 128 4 -4.817280658818758 6.599475030783014 -4.585202280077033 2 1 -4
402 128 2 -5.057717205134813 6.269970186840432 -4.296046274607416 2 1 -4
686 222 4 -4.841078134845747 -6.767579979225954 -4.365523461192184 0 0 0
483 155 2 -4.158060562550423 6.111724689799926 -3.429005748010934 0 0 6
484 155 4 -3.9000709328747454 5.905300749557418 -3.8042883587699965 0 0 6
886 289 4 -4.237064569920401 5.936385072605789 -4.135243746541339 0 -2 2
885 289 2 -4.095758232138028 5.710102871180886 -4.558126359391963 0 -2 2
1414 465 4 -3.114498160548997 6.743269024986963 -2.603381401833416 1 2 -2
999 327 2 -6.894737870232066 -6.9173240752963165 -2.8332551159238273 2 1 1
1415 465 4 -2.1277321946037318 6.735014052543346 -2.7652684110158807 1 2 -2
656 212 4 -4.821103499773235 -5.1865566657912945 -2.426867613312816 0 1 2
655 212 4 -4.970797237204757 -6.163490099147016 -2.274571806904822 0 1 2
654 212 2 -4.895952718857582 -5.675020997428942 -2.350718175122041 0 1 2
771 251 2 -1.806708204171254 -5.22800980283498 -2.668310217818196 -1 1 0
772 251 4 -2.1490285904288284 -5.532033019801533 -2.467341012485188 -1 1 0
773 251 4 -1.4643939462100657 -4.9239813523380125 -2.8692774139464734 -1 1 0
782 254 4 -3.131750243078158 -4.172003853443665 -2.5770957027649057 -1 2 3
780 254 2 -3.120171093110136 -3.786109335435269 -2.8948425834558336 -1 2 3
781 254 4 -3.108590058004972 -3.400218017511685 -3.212592070719727 -1 2 3
1437 473 2 -6.724381087864235 -1.620882416022352 -2.509640290053843 -1 0 1
1439 473 4 -6.4104058643671245 -1.4842846850357472 -2.8740039140795592 -1 0 1
611 197 4 -4.657211771755861 -2.4870526603894354 -3.8150583251585397 -1 -2 2
813 265 2 -4.988273147360257 -1.2224363292464788 -2.467508366295203 0 1 1
1480 487 4 -3.3918923698701007 -2.1651296594866603 -3.4228691395944026 1 -1 0
610 197 4 -3.666255422606027 -2.4955749751907836 -3.680961190188734 -1 -2 2
609 197 2 -4.161738183807958 -2.491311982281333 -3.748013958378068 -1 -2 2
1479 487 2 -3.3216570017265505 -1.6704992044552356 -3.4432574475080306 1 -1 0
814 265 4 -5.045199489971221 -1.2211649216165419 -2.964259848889772 0 1 1
1003 328 4 -2.0713805190169907 0.1581212496148273 -2.1413217518449423 -1 3 0
10 2 3 -6.190901411514804 1.5060930049480088 -3.0506789053714067 0 -1 0
613 198 4 -6.669564423562704 1.4957466974891154 -3.162334486960291 0 1 1
1004 328 4 -2.2782273711476013 1.111176588669595 -2.3624703561760136 -1 3 0
1002 328 2 -2.1748067282654855 0.6346515738413615 -2.251899943802617 -1 3 0
209 63 4 -2.497454547937637 1.3774836244004145 -2.7253164646193984 3 -1 -1
1120 367 4 -0.8049321428564634 0.6492907554488964 -3.155321281934359 0 1 0
713 231 4 -6.559138547255683 2.799337758423418 -2.195526930796943 1 -3 1
8 2 3 -5.9169781853937815 1.7556398179795898 -3.706117562539579 0 -1 0
207 63 2 -2.5349362950394316 1.7930945897159236 -3.0007485943671544 3 -1 -1
208 63 4 -2.572404119562469 2.2087167732931903 -3.2761676620366407 3 -1 -1
1313 431 4 -2.9301157845257966 2.4150891329750706 -3.0055748658628865 2 1 0
263 81 4 -1.2077140209087156 2.223101488113441 -2.050277618960561 0 0 -2
261 81 2 -0.9434377036255254 1.8979928115419153 -2.3231817580458274 0 0 -2
262 81 4 -0.679166791585269 1.5729122149592902 -2.596092844168988 0 0 -2
711 231 2 -6.173408895744855 2.527497395863218 -2.3608010209329655 1 -3 1
1311 431 2 -3.3511812513860435 2.4339406637085554 -2.7366008557633443 2 1 0
156 46 2 -6.560259263114125 3.5917370127523554 -2.453897687459477 -1 -2 -3
158 46 4 -6.453289818160908 3.5901290726742845 -2.9423095590964325 -1 -2 -3
1396 459 4 -6.142852620900655 3.5487357345318924 -3.283429913933738 1 0 -1
1397 459 4 -5.604095854729902 4.372945720922002 -3.457857866052261 1 0 -1
1395 459 2 -5.873479316864952 3.9608310092894223 -3.370645287947611 1 0 -1
352 111 4 -2.7855953920448076 4.752676956213327 -3.240563408643015 2 1 1
391 124 4 -0.9994423118054121 4.106578781097027 -2.6202694551480734 -1 0 0
349 110 4 -0.7386699985761644 4.4137091474794214 -2.9315071247366187 -1 -1 1
1026 336 2 -5.863413074513544 5.1508392634718305 -3.3614378727377434 0 -2 -1
1027 336 4 -6.237274054156783 5.409874786637006 -3.153775870248094 0 -2 -1
616 199 4 -4.987932378376951 4.891636411468661 -2.693990329917288 1 0 -4
615 199 2 -4.763976164469287 4.965273452507254 -2.253052080811477 1 0 -4
485 155 4 -4.416049556129885 6.318132171085903 -3.0537242881572078 0 0 6
563 181 4 -4.277140856377931 6.1124080499244755 -2.6159156357629163 2 1 1
561 181 2 -4.136777096157491 5.858989191967769 -2.208388803363961 2 1 1
1482 488 2 -3.393112939032872 4.768672181605708 -2.642570838777075 0 0 4
1483 488 4 -3.130974757369627 4.915630801112838 -3.042155756395418 0 0 4
767 249 4 -2.2069652141643554 5.089961532012774 -2.564104102254643 2 0 -2
348 110 2 -0.6516774694495613 4.723854418410395 -3.3139229794809415 -1 -1 1
1000 327 4 -6.432717118769552 6.850822708203324 -2.668672379821863 2 0 1
1413 465 2 -2.621114781806109 6.739137542419255 -2.6843047036500547 1 2 -2
765 249 2 -2.2891908601275124 5.359196235019969 -2.1508837346447067 2 0 -2
113 31 4 -5.109866079173352 -4.806475271175708 -1.7264473638660092 3 -2 0
432 138 2 -2.861400044130087 -4.980298339098112 -2.2011187867433932 -1 -3 0
434 138 4 -2.605826954242098 -5.409301738584331 -2.2262705103216556 -1 -3 0
508 163 4 -0.4524932016448284 -5.7959941852445525 -1.3129821688454548 -1 1 3
979 320 4 -5.056394934835442 6.231046832461568 -0.959493757247345 -2 4 -1
1069 350 4 -1.26570520002846 -5.020198123994099 -1.752723033600713 -1 -2 -1
1049 343 4 -5.918716856927367 -3.726417120098676 -2.011681609066892 -1 0 -1
1047 343 2 -5.683582450322719 -3.2943473922010122 -1.9221038726216932 -1 0 -1
1048 343 4 -5.448445795302393 -2.8622676164515997 -1.8325139595467494 -1 0 -1
111 31 2 -5.330649610671124 -4.401956070520447 -1.5324867060825644 3 -2 0
1298 426 4 -5.848136939693581 -3.5703383988249313 -1.180480435181265 0 0 1
112 31 4 -5.551441055638487 -3.9974348597879312 -1.3385332921622524 3 -2 0
805 262 4 -2.9042390051551115 -3.913366815250086 -2.057740187389676 -1 0 -2
433 138 4 -3.116983764695734 -4.551279458746457 -2.1759602723945113 -1 -3 0
804 262 2 -3.026297029169787 -3.762034044553551 -1.5970768021687363 -1 0 -2
806 262 4 -3.148365220525622 -3.610709414289328 -1.136424128027787 -1 0 -2
454 145 4 -2.432442071184929 -4.089481629727568 -1.4349001226973597 -4 -1 3
453 145 2 -2.0614362031210445 -3.994415957084189 -1.1134549756381205 -4 -1 3
455 145 4 -1.6904278169722768 -3.8993574730789327 -0.7920235547550758 -4 -1 3
1051 344 4 -0.5295931353047764 -3.841140556602966 -1.8917277823073935 1 -3 -1
1052 344 4 -1.2544086995932162 -4.45568313256658 -1.580338738190523 1 -3 -1
1050 344 2 -0.892006154242307 -4.148408336629863 -1.73603472578199 1 -3 -1
697 226 4 -4.992596516114033 -2.8292626664193756 -1.1187621563367112 -3 3 2
1446 476 2 -4.50705314831552 -2.5143802824384682 -1.4523006158500447 0 -1 1
1447 476 4 -5.005331131460257 -2.54591753412146 -1.4795082197654372 0 -1 1
815 265 4 -4.931348641363821 -1.2237104202667863 -1.9707671974235694 0 1 1
1448 476 4 -4.008790223309668 -2.482832450316212 -1.425087041308027 0 -1 1
595 192 4 -4.144372513042438 -1.9564694791626818 -1.2346498427756205 1 3 -1
1400 460 4 -1.057931754041109 -1.616552881033071 -1.1222122708445363 2 -1 -2
1398 460 2 -1.4435459791258218 -1.7033374322985968 -0.8159985754285637 2 -1 -2
578 186 4 -4.246856046134701 -1.0321689237952616 -1.5591010432072405 1 3 3
576 186 2 -4.470029821518219 -0.6048121049192914 -1.4265545189731235 1 3 3
1358 446 4 -2.5260268078138965 -0.0782047455199766 -2.174813939953943 0 0 1
1356 446 2 -2.4633190590287524 -0.5174240951632713 -1.9442357398017753 0 0 1
823 268 4 -2.603810673487955 4.4138176445838 -0.5406420089221576 -2 0 0
674 218 4 -0.26066364041781975 0.12293157262666436 -0.6281304012979295 -1 1 -4
1247 409 4 -5.832281710856822 1.549263286062512 -1.22218177295301 0 1 0
89 23 4 -5.291579527483423 1.5322683524423228 -1.2980452850389117 1 0 -3
88 23 4 -4.308838300099978 1.3814096068345159 -1.4053461228869741 1 0 -3
87 23 2 -4.800215588858889 1.4568406094461277 -1.3516909006822435 1 0 -3
890 290 4 -3.7798933673468 1.2532498949808712 -1.387600887962657 -1 -3 0
888 290 2 -3.38722987643377 0.9441303662728187 -1.4038991800796286 -1 -3 0
712 231 4 -5.78767837611837 2.255660736148965 -2.526078029846267 1 -3 1
1312 431 4 -3.77225543523428 2.4527982254811573 -2.4676242844560172 2 1 0
157 46 4 -6.667230292561355 3.5933406176886025 -1.9654790609992283 -1 -2 -3
91 24 4 -6.441189707833747 4.127931526380816 -1.5958375079837936 0 -2 1
90 24 2 -6.100276358319502 4.464653873114661 -1.4530480480940637 0 -2 1
943 308 4 -2.749005886193828 4.135475462273839 -1.780304223540634 -3 1 -4
942 308 2 -3.178851719983499 4.036051899700469 -1.545040282283376 -3 1 -4
1484 488 4 -3.6552684456717195 4.621733503914484 -2.2429650336812466 0 0 4
944 308 4 -3.608696894088047 3.9366327915035466 -1.309771202206119 -3 1 -4
292 91 4 -1.1526410762650114 4.662121585733629 -1.036635223268358 1 -2 3
291 91 2 -1.184665878617265 5.107577038761532 -1.261457517548165 1 -2 3
392 124 4 -0.41859364213667527 3.468739509398772 -2.114512046001898 -1 0 0
390 124 2 -0.709011029209515 3.7876577375557607 -2.3673926562661323 -1 0 0
1168 383 4 -6.666949919240482 5.5233549970375835 -1.433994901677484 2 -1 -2
92 24 4 -5.759356030197861 4.801398169687436 -1.3102503492470992 0 -2 1
145 42 4 -4.902025639977819 5.101984384135339 -1.4666749445103222 2 1 0
144 42 2 -5.334801667658921 5.170810456674379 -1.225911815426411 2 1 0
617 199 4 -4.540019166279624 5.038900331722531 -1.812116071590717 1 0 -4
562 181 4 -3.996402023041981 5.605571913522559 -1.8008582595240632 2 1 1
980 320 4 -4.670885758612194 6.577987505223272 -1.8144938060697762 -2 4 -1
449 143 4 -3.602355715861902 5.668543982168358 -1.5114552725787787 1 -2 3
978 320 2 -4.863641903187599 6.404521611371848 -1.386999694471716 -2 4 -1
448 143 4 -2.7208288450181377 5.869027099619036 -1.9388977358012924 1 -2 3
447 143 2 -3.1615903138126416 5.768786773139185 -1.7251729557991542 1 -2 3
766 249 4 -2.3714229884049804 5.628428173531667 -1.737657394451645 2 0 -2
1460 480 4 -2.852281183912559 -6.169719629964804 -0.6418521109253341 2 -1 -1
1458 480 2 -2.474752877595742 -6.46768608744819 -0.505147781557757 2 -1 -1
456 146 2 -1.3814262652728235 -6.637797070853252 -0.6482809976185405 -1 0 -2
1459 480 4 -2.097224537276373 -6.765655256210954 -0.3684464577350811 2 -1 -1
458 146 4 -1.1261611380334273 -6.63996998974887 -1.0782104765032092 -1 0 -2
1070 350 4 -1.6030391318893196 -5.720441881962959 -1.1235312069860297 -1 -2 -1
1068 350 2 -1.434369597118784 -5.370322044152419 -1.4381239628632851 -1 -2 -1
1039 340 4 -0.011471747598236347 -1.9625334413155866 -3.253977930491543 0 0 -1
1296 426 2 -6.2906744055355714 -3.603519973334725 -0.9501192940919075 0 0 1
1264 415 4 -0.22437513310782106 2.773397217388213 -0.19282097234785703 -1 -1 1
703 228 4 -4.046196894941716 -3.5726640863843326 -0.2928172218294534 -2 1 -2
1127 369 4 -1.3460580083962754 -4.000917193141776 -0.41879057943680204 -1 -2 -2
1125 369 2 -0.9484020876804967 -4.252824193963152 -0.25021923071237395 -1 -2 -2
822 268 2 -2.6121600210389824 4.372674160123888 -0.04240719738473324 -2 0 0
1099 360 4 -6.40523645432734 -3.5116238346140376 -0.35864740012093826 0 -3 1
1297 426 4 -6.733207373671431 -3.636703132185604 -0.7197612220968027 0 0 1
216 66 2 -0.002395246943254435 -0.328847009681241 -4.311937596569837 1 -1 -1
696 226 2 -4.980763408843088 -3.139071752903384 -0.7265090584204584 -3 3 2
698 226 4 -4.968935677032985 -3.4488856725405035 -0.3342426741505506 -3 3 2
702 228 2 -3.5742921039792015 -3.4224015336548925 -0.22402924659064272 -2 1 -2
704 228 4 -3.1023825529939533 -3.2721547218520906 -0.15525380235114442 -2 1 -2
594 192 2 -3.967987268094772 -1.573209366697025 -0.966310536879886 1 3 -1
1399 460 4 -1.8291634125424703 -1.790128100619474 -0.5097886898734322 2 -1 -2
146 42 4 -5.76758896662409 5.239639814781947 -0.9851657965617449 2 1 0
214 65 4 -2.0670866105660517 -2.1900447109690018 -0.3310776055878562 0 -1 2
577 186 4 -4.693204600439404 -0.1774591091144755 -1.2940165305470666 1 3 3
596 192 4 -3.791600290308667 -1.1899464474851162 -0.6979843488870525 1 3 -1
1357 446 4 -2.4006056248186614 -0.9566287907005238 -1.7136596365964882 0 0 1
1245 409 2 -5.82095098813343 1.420257090600677 -0.7392425598637978 0 1 0
917 299 4 -4.96043448076239 -0.15684925618065307 -0.5636604023095857 4 0 0
1263 415 2 -0.20822460909958 3.249445573351341 -0.34486594940268606 -1 -1 1
293 91 4 -1.2166777599597554 5.553043392824311 -1.4862860468558396 1 -2 3
672 218 2 -0.502854654572194 -0.3019004226892538 -0.7323328707162303 -1 1 -4
673 218 4 -0.7450489981875217 -0.726728445823882 -0.8365271255288143 -1 1 -4
915 299 2 -5.322542214762041 -0.09241586218047129 -0.22495896811194435 4 0 0
1265 415 4 -0.1920709961359435 3.7254925939317602 -0.49690329430890745 -1 -1 1
1246 409 4 -5.809614767070461 1.2912530738080983 -0.2562998739434281 0 1 0
1351 444 4 -5.459390609019212 1.5575250821625648 -0.025866421932080247 1 -4 0
219 67 2 -6.929957741526328 -3.0780166821754764 -3.938176784725132 1 0 0
309 97 2 -3.5384848599691106 2.4028102635949473 -0.6084912491224468 -2 1 1
311 97 4 -3.163956849661371 2.474774466423659 -0.2851419771850214 -2 1 1
889 290 4 -2.994580873754371 0.6350003670740845 -1.420194916241634 -1 -3 0
310 97 4 -3.9130075183351267 2.3308414282005656 -0.9318406706622498 -2 1 1
307 96 4 -3.961870065177782 -5.602479257093328 -0.31859080429355935 -2 0 -1
1426 469 4 -3.099817567566525 1.9701297436806426 -0.11261565687684563 2 0 1
831 271 2 -3.676602427292571 6.47568480181156 -0.21055838027490079 1 -1 1
1449 477 2 -0.7855969491954717 2.2953853150607864 -6.8253971617165705 2 -1 4
1126 369 4 -0.5507353123859311 -4.5047473502814315 -0.0816523957197733 -1 -2 -2
1431 471 2 -6.919527406912409 -1.447474796693239 -6.142505587080604 1 2 0
1361 447 4 -0.04507427161606433 1.3481106192972743 -6.389157249595815 0 0 2
689 223 4 -4.212546941611262 -6.79066290437682 -0.10210932321314765 0 2 -1
277 86 4 -0.27649427152577316 -2.9288337212796036 -0.060882021305987556 1 -2 1
60 14 2 -6.158340776945903 0.5018213755506391 -0.07459059385434048 1 2 3
62 14 4 -6.14259970275786 0.013725748368263587 -0.18190028909674474 1 2 3
308 96 4 -3.7802284759987255 -4.670777825056286 -0.0040133306302793225 -2 0 -1
1123 368 4 -1.6434060857696398 2.8763573767454806 -0.06918333735059441 2 3 1
809 263 4 -3.5961635303731265 0.6922390076674487 -6.920242490169166 1 -3 0
280 87 4 -0.33614635092691175 -5.825461686135462 -0.015893723385076042 1 1 0
688 223 4 -4.064023954415556 -5.857582094017971 0.22544661820017112 0 2 -1
687 223 2 -4.138283350247453 -6.324120849414368 0.06166849796594112 0 2 -1
720 234 2 -0.01951705361857133 2.492973051747934 3.683068733504457 -2 2 1
118 33 4 -1.859972738945988 -6.84741156798946 1.6232412226535298 -1 1 0
879 287 2 -5.638396081236376 -5.564304808878397 0.6569594556366151 6 3 -2
880 287 4 -5.565557061129899 -5.89977929828396 1.0204891868981945 6 3 -2
881 287 4 -5.711239248069019 -5.228833411598195 0.29342965851416564 6 3 -2
581 187 4 -4.0830410425166255 0.5325065112343884 0.5961294517976063 1 -5 -2
579 187 2 -3.959554421774415 1.008996654106894 0.5082964301231768 1 -5 -2
281 87 4 -0.5268560404966218 -4.8970461801359475 0.3030299168981643 1 1 0
279 87 2 -0.4314926901257421 -5.361261580932021 0.14357845900208993 1 1 0
32 7 3 -6.683969454172717 6.658268041969758 6.8682446130266435 0 0 -1
968 316 4 -2.6381885093039434 -3.3550255948291685 0.06798617835472431 2 2 -4
966 316 2 -2.245189781815095 -3.46730805735811 0.3559961109956685 2 2 -4
967 316 4 -1.8521978824995862 -3.5795905590768156 0.6440150657654969 2 2 -4
1225 402 4 -1.8285495095667361 -2.0699993451958947 1.017077351503161 0 -1 0
276 86 2 -0.2500172051434682 -3.3290023379873652 0.23772904416536658 1 -2 1
1435 472 4 -6.929218639109526 -3.5530801424748413 6.0745265772522155 3 2 0
215 65 4 -1.7241504799626997 -2.3558402012471387 0.5935445620986058 0 -1 2
916 299 4 -5.684661971311253 -0.027978758015463748 0.11374559245934211 4 0 0
1238 406 4 -6.812640874779904 1.109740565845788 4.932707004257181 1 2 -1
1236 406 2 -6.827189963637336 1.4131042467253532 4.535518499466741 1 2 -1
327 103 2 -1.1955771985856554 -0.6572176763362518 0.5064572854778705 0 -1 2
328 103 4 -0.9906982497224441 -0.6991171622551213 0.05227799715109462 0 -1 2
329 103 4 -1.400449889799087 -0.6153157794897193 0.9606206175107928 0 -1 2
61 14 4 -6.17407025785528 0.9899303183650544 0.03272123348270386 1 2 3
877 286 4 -6.879819499347528 -1.1101866928162059 4.680329374385433 0 -2 -3
1186 389 4 -6.7926037952654355 3.8767138243376422 1.3372867115226053 -3 -1 1
131 37 4 -4.916843533639311 1.7232110839957617 1.6691592274335185 0 1 -1
120 34 2 -0.2559463838715379 5.662976947357427 4.61075611713161 -1 -1 -4
1229 403 4 -6.618227242302577 1.1797829765471033 1.5262835595765105 2 -2 -3
1427 469 4 -3.0824762489320388 1.6534138354490964 0.8357520614975207 2 0 1
1352 444 4 -4.937230772102058 2.4071450594508317 0.04844716697091017 1 -4 0