LAMMPS data file via write_data, version 29 Aug 2024, timestep = 2000001, units = lj

1520 atoms
4 atom types
1020 bonds
1 bond types

-6.932675 6.932675 xlo xhi
-6.932675 6.932675 ylo yhi
-6.932675 6.932675 zlo zhi

Masses

1 1
2 1
3 0.5
4 0.5

Bond Coeffs # zero

1 0

Atoms # bond

648 210 2 -2.0783889236840074 -4.225855615949345 -0.373205875787072 0 -1 0
992 324 4 -5.623222061470858 -5.255160739594174 -6.745052602371239 2 1 0
990 324 2 -5.572036265430215 -5.173529766817267 -6.254407021897004 2 1 0
492 158 2 -5.63276793610958 -0.22273498794006935 -1.8193267225800112 0 1 0
224 68 4 -1.0789736234764802 -4.19391899832144 -6.215710905638962 -2 1 0
550 177 4 -5.802798484378693 -4.432224914597646 -6.853752037861131 1 -1 1
623 201 4 -6.680416836209805 -3.8049916155023658 -6.476506609508104 0 1 1
621 201 2 -6.79864683281993 -3.6161167979048634 -6.92412938693053 0 1 1
549 177 2 -5.618982897226304 -4.071002153273455 -6.560942936743356 1 -1 1
551 177 4 -5.43518247382041 -3.7097886861767835 -6.268128701633586 1 -1 1
326 102 4 -3.3102915113977374 -3.7733995505447306 -6.178715840886937 -1 1 1
184 55 4 -1.6034872494153984 -3.3809968432753053 -5.723506823565006 0 -1 -1
222 68 2 -1.286452655311396 -3.7819661076287154 -6.408741130174985 -2 1 0
223 68 4 -1.493914773819223 -3.370015142814534 -6.601754738668548 -2 1 0
499 160 4 -2.921927846435082 -0.1301538373845034 -3.4526891867820457 -1 1 0
257 79 4 -2.926570907594992 -1.00095161762401 -1.0907102628160872 1 -1 1
881 287 4 -0.33250617295355966 -3.9045612374795673 -6.1555057829798026 2 -1 -1
28 6 3 -1.2324370201717219 -2.326016778310134 -6.252456732440072 1 1 1
418 133 4 -3.3344190664746036 -3.315296819023948 -6.377771042102007 1 0 1
417 133 2 -3.2383644723534735 -2.9467867443220728 -6.7017572722936585 1 0 1
589 190 4 -4.878901074286812 -3.4540196853771787 -1.1924484616884639 1 0 -2
27 6 3 -1.4696832406309852 -2.6549174080310056 -5.619633018257117 1 1 1
26 6 1 -1.1647555073597355 -2.682303504357023 -5.962966686493826 1 1 1
29 6 3 -0.7365969187792801 -2.6628308919310792 -5.785227666272422 1 1 1
210 64 2 -5.638064136978036 -1.9460033837758168 -5.66355082400878 1 -1 0
211 64 4 -5.37484509092165 -1.5324521125155095 -5.7619468060614665 1 -1 0
635 205 4 -3.3219091430267436 -0.9086476309306204 -5.5364420742061755 0 0 1
633 205 2 -3.2509426403725232 -0.421291026148164 -5.622746844929662 0 0 1
498 160 2 -2.602295822191453 -0.510766576148591 -3.3981131493947814 -1 1 0
1321 434 4 -1.012489966050749 -6.804725197816161 -4.3994044812309 0 0 0
1320 434 2 -1.1473818787123455 -6.331617391035083 -4.310146855491305 0 0 0
1493 491 4 -5.708490318407685 -4.952719757329007 -5.310297542761726 0 0 -1
1491 491 2 -5.7717959858333705 -4.851382783265798 -4.824772050232095 0 0 -1
991 324 4 -5.5208207503520805 -5.091894589554399 -5.763767847583806 2 1 0
1054 345 4 -1.4454833948759185 -5.026290904565454 -4.405147900612849 0 1 1
1076 352 4 -5.453552747589305 -3.6347696194786976 -5.783831990243313 0 -1 0
1074 352 2 -5.354638895560325 -3.6956921403302596 -5.297532151413027 0 -1 0
1075 352 4 -5.2556903869265925 -3.75660996197712 -4.811225455958566 0 -1 0
324 102 2 -2.849514816619964 -3.7267653756864094 -5.99027771338202 -1 1 1
325 102 4 -2.388715096380966 -3.6801501191908903 -5.801845551402965 -1 1 1
476 152 4 -2.4539389415324218 -3.7762446978665727 -4.541676502567874 1 1 0
474 152 2 -2.7975664115328263 -3.6332205333136307 -4.207832366545148 1 1 0
185 55 4 -1.6214582769568704 -4.05950284771777 -4.989154860442302 0 -1 -1
30 6 3 -1.2232831193227005 -3.075814477510767 -6.184551912830937 1 1 1
183 55 2 -1.612481923956355 -3.7202506027106192 -5.356336857072624 0 -1 -1
879 287 2 -0.1242963987174999 -3.5638385878466945 -5.854581380622475 2 -1 -1
855 279 2 -6.360006636416027 -4.046992377120614 -0.03762434309067116 2 0 -1
212 64 4 -5.901306027523529 -2.359577894917193 -5.565183257454341 1 -1 0
1167 383 2 -0.2622793042301807 -2.4885002253986297 -5.477518373281072 0 0 -1
1169 383 4 -0.3589073025913526 -2.972454791853862 -5.557727762002173 0 0 -1
338 106 4 -6.294064811242708 -2.3710783137138582 -5.212164934790597 0 0 -1
336 106 2 -6.790182221877213 -2.350299605609535 -5.270960809240023 0 0 -1
1454 478 4 -5.2220736571828255 -1.5989622685371352 -5.311683481021324 1 0 1
1168 383 4 -0.16566134443142363 -2.004515840558719 -5.397339258027462 0 0 -1
1452 478 2 -5.229244357410671 -1.137085038239366 -5.120267171890154 1 0 1
1453 478 4 -5.236444345439661 -0.6752337295177806 -4.928837590031978 1 0 1
400 127 4 -5.463778413777778 -0.35699278886758795 -0.7745364390889704 0 0 -1
851 277 4 -2.7515558104756916 -1.5328037246172819 -5.085434313541157 0 -2 0
849 277 2 -2.2547278752672457 -1.4917840179823472 -5.123994060743521 0 -2 0
512 164 4 -6.155813331297374 -5.935835174020936 -3.7214300258103 0 0 -1
510 164 2 -6.510289890604636 -6.217961913036632 -3.509924867417147 0 0 -1
137 39 4 -4.16512853472066 -6.220042744041817 -4.290455735670169 0 0 -1
135 39 2 -4.191789729991924 -6.707261932451994 -4.1813068793243335 0 0 -1
1339 440 4 -4.622544415662199 -3.6728818419628415 -0.8349244035068313 2 0 -2
1322 434 4 -1.2822506040519424 -5.858491800941237 -4.220892925144835 0 0 0
1492 491 4 -5.835124063137425 -4.749998442836216 -4.33926815275837 0 0 -1
809 263 4 -4.2662901638241735 -5.752060784123522 -4.076491932065367 2 0 -1
807 263 2 -4.165394356283612 -5.273329622260158 -4.179557366832024 2 0 -1
808 263 4 -4.064507176971696 -4.7945820326380515 -4.282632627223722 2 0 -1
319 100 4 -3.6847855525987523 -4.5542342350616165 -4.038257192562579 -1 2 1
318 100 2 -3.211250787985386 -4.672173382568292 -4.147129387369146 -1 2 1
1053 345 2 -1.8793296620304232 -4.898781192857696 -4.1917982627914325 0 1 1
1055 345 4 -2.3132050643900555 -4.771273820662875 -3.9784648018617097 0 1 1
707 229 4 -5.763190647965989 -4.322975990908332 -4.100032278809435 0 2 1
705 229 2 -5.754684388063397 -4.253529965780684 -3.6049653766514593 0 2 1
320 100 4 -2.7376958681740815 -4.79013721724048 -4.256015743340858 -1 2 1
475 152 4 -3.141206071584307 -3.4902016989021014 -3.873951967817865 1 1 0
1115 365 4 -3.7540132117731195 -3.0832830067173895 -3.9776162780650104 1 0 0
380 120 4 -2.8963558018936637 -3.0599429719301585 -3.897807211053006 0 1 2
378 120 2 -2.9701006472163134 -2.9345756392100606 -3.419424001920851 0 1 2
1082 354 4 -6.645486612873485 -1.0954822552050074 -3.225703020041295 0 1 1
359 113 4 -4.977111324368124 -1.4674827262973753 -3.8370705544687405 0 0 0
357 113 2 -4.8398372436660395 -1.9261782920751873 -3.9811787240295073 0 0 0
1517 499 4 -5.097557948120786 -1.0015763251529342 -3.9360545894044807 1 0 -1
1515 499 2 -4.7920866692496285 -0.6290177364806006 -3.802256372613127 1 0 -1
1516 499 4 -4.486642950185107 -0.25638752582916996 -3.6684754269618476 1 0 -1
500 160 4 -2.2826468396651065 -0.891370699103517 -3.3435545304049015 -1 1 0
850 277 4 -1.7579221315434368 -1.4507766293779527 -5.1625729604903245 0 -2 0
255 79 2 -2.450415380255943 -1.0503468201547919 -0.946321912106032 1 -1 1
904 295 4 -0.10269510916152627 -0.286359337709907 -3.6454126690511424 0 0 0
493 158 4 -5.675955790935589 -0.6014410479138917 -2.142932215184131 0 1 0
511 164 4 -6.864771932327899 -6.500102072106506 -3.298428116559763 0 0 -1
350 110 4 -3.769395765669226 -5.8575235966646515 -2.4904682214355085 -1 1 1
649 210 4 -2.384841489400748 -4.267417291297236 -0.7661075599993482 0 -1 0
1410 464 2 -0.24804496363448802 -6.91104120130016 -2.4355977453620183 1 1 -1
843 275 2 -6.774888743147516 -5.029240016662867 -3.054894552789213 1 0 2
845 275 4 -6.3788347425467755 -4.857292767564784 -3.3070560264071007 1 0 2
482 154 4 -6.1785214628334355 -5.188877558101596 -2.263566856836389 0 1 1
480 154 2 -5.700235500092822 -5.118299594866422 -2.3910434590427276 0 1 1
1392 458 2 -3.7918600515254366 -5.171310209951694 -2.651183257975554 0 1 1
1394 458 4 -3.6101103601479303 -5.424586398953488 -2.260263045412699 0 1 1
1393 458 4 -3.973600581516341 -4.918021561525036 -3.0420948981551965 0 1 1
1012 331 4 -4.311386897917042 -4.565003962869193 -3.2287170339999562 1 0 0
706 229 4 -5.746192721267632 -4.18410794493767 -3.109877468726035 0 2 1
1013 331 4 -5.245821093355221 -4.806986959542616 -2.9672946563942904 1 0 0
1094 358 4 -5.225955033445971 -4.100757370072796 -3.009970096434892 1 -1 -1
1011 331 2 -4.778605264908778 -4.686003072683204 -3.0979967412050753 1 0 0
481 154 4 -5.221941738203251 -5.047727258868576 -2.518528003675079 0 1 1
1092 358 2 -5.2899891575723075 -3.8207486230451404 -2.600725332910405 1 -1 -1
358 113 4 -4.702564855482546 -2.3848780336695987 -4.125291070943757 0 0 0
1114 365 4 -4.369542570285599 -3.4451998525123626 -3.2775477822823107 1 0 0
1113 365 2 -4.061770516994004 -3.264232668775384 -3.627587034894919 1 0 0
379 120 4 -3.0438344081049395 -2.809226156276708 -2.9410694965641615 0 1 2
1080 354 2 -6.826294214939214 -1.555414115247087 -3.1498379397344682 0 1 1
1340 440 4 -4.208380006625752 -4.435548154422321 -0.3381635230152538 2 0 -2
448 143 4 -0.09594603857359962 -1.01734391276507 -0.8967861747973491 0 1 1
401 127 4 -4.499215902593593 -0.11874806978024295 -0.8878423969651245 0 0 -1
905 295 4 -0.12537655770357908 -1.1917177936926278 -3.221357931539387 0 0 0
903 295 2 -0.11401794215030502 -0.7390298586106133 -3.4333748015871426 0 0 0
911 297 4 -0.18252373745792463 -1.3616519241536116 -2.7651829262420886 0 0 -1
348 110 2 -3.90682959493574 -6.300717798851339 -2.3042382099229233 -1 1 1
349 110 4 -4.044284661254007 -6.743902438942791 -2.1180004750127335 -1 1 1
158 46 4 -2.478446279785874 -5.950755384435647 -2.310653882823338 1 1 -1
156 46 2 -2.1220794400572873 -5.7978389379155635 -1.99503118966219 1 1 -1
421 134 4 -4.3175507710875385 -5.328157314196547 -1.0376314232077555 2 1 0
1177 386 4 -2.477155516297688 -4.727084065453919 -0.8977651187460541 0 1 -1
157 46 4 -1.7657155305571821 -5.644886534380087 -1.6793793392504333 1 1 -1
1178 386 4 -3.023974980984201 -4.358030706266472 -1.649329304760913 0 1 -1
1176 386 2 -2.750561319126969 -4.542554014091695 -1.273554092047702 0 1 -1
1093 358 4 -5.354017355561709 -3.5407161873931035 -2.1914756845369054 1 -1 -1
590 190 4 -4.924784396528676 -3.321580060528591 -2.1825896000862683 1 0 -2
588 190 2 -4.9018511445649215 -3.3877989271625313 -1.6875057982367605 1 0 -2
1338 440 2 -4.415454182743249 -4.0542095700769964 -0.5865480459946241 2 0 -2
399 127 2 -4.981506153158104 -0.237861918331586 -0.8311939613100552 0 0 -1
256 79 4 -1.9742534625470618 -1.0997167213472907 -0.8019784082731712 1 -1 1
541 174 4 -4.520647290706903 -6.225774894680007 -0.5965346709949125 0 0 0
422 134 4 -4.891410523287745 -6.139121720415651 -0.923314861105966 2 1 0
540 174 2 -4.4343856748419075 -6.70623930213304 -0.4883167221046011 0 0 0
1418 466 4 -0.5157399356371014 -6.246182302846069 -0.013022263027334058 -1 -1 1
1416 466 2 -0.7189543157968891 -6.61242091369893 -0.2860645550064563 -1 -1 1
420 134 2 -4.604476991203857 -5.73363266790773 -0.9804756984773856 2 1 0
857 279 4 -6.30983015105877 -4.35108063505318 -0.43133690970310934 2 0 -1
935 305 4 -6.926605478932719 -0.7520462918590018 -1.5134135246260263 0 -1 -1
1484 488 4 -3.8499348957689796 -0.004472537849860836 -3.031331827986177 1 -1 0
1175 385 4 -5.377620703551487 -5.778568743999053 0.669449025896433 0 0 0
1173 385 2 -5.299823346578674 -5.821141042907697 1.1615208335940315 0 0 0
105 29 2 -2.592702508103952 -4.56957398869923 0.7809722407881969 1 1 -1
1489 490 4 -0.6048718115096327 -5.818559170611095 0.14734757710511784 0 0 1
1488 490 2 -0.3058854125313604 -5.422484820274946 0.2084112295991661 0 0 1
1490 490 4 -0.006924270961195104 -5.0264125006214915 0.26944455538600126 0 0 1
885 289 2 -0.9950447169723142 -2.9567169984047164 6.814831677076838 0 0 -2
856 279 4 -6.410181415527067 -3.742906757094608 0.35609478630047375 2 0 -1
189 57 2 -5.674565355172687 -4.269638233614762 1.0051776488769666 0 0 -2
191 57 4 -5.311244342483481 -4.120695617560005 0.6956646539642012 0 0 -2
107 29 4 -2.437549968726717 -4.575194721821389 0.3056855404638844 1 1 -1
1154 378 4 -2.615613920301367 -3.560728792170508 1.289413071580661 1 -1 1
394 125 4 -2.2579864381729657 -3.439851470744042 0.9652345084129086 -1 -1 -2
393 125 2 -1.9187422502001465 -3.6271059514470254 0.6492342094577241 -1 -1 -2
395 125 4 -1.5794941830558624 -3.814337989420738 0.3332180581190606 -1 -1 -2
382 121 4 -6.5302407342361075 -3.381404276342095 0.6797161282041189 1 0 1
381 121 2 -6.262971835187353 -2.9663324893072005 0.7589877958729174 1 0 1
383 121 4 -5.995713346277277 -2.5512683445028514 0.8382632261958263 1 0 1
698 226 4 -6.700375672398289 -1.37891270695327 0.10500065202969955 1 0 0
939 307 2 -4.417204698398338 -1.4974929715813003 0.6218240835540575 0 -1 -1
835 272 4 -2.336600802272047 -2.0158633223831943 0.9986880109567658 0 1 -1
1405 462 4 -1.3109375517098314 -1.4667684921653015 0.18536053825848264 1 1 1
836 272 4 -1.6736769315921167 -1.8367065924604882 0.27178457450985805 0 1 -1
834 272 2 -2.005150214213273 -1.926284143806813 0.635237638274589 0 1 -1
739 240 4 -1.1196848511443178 -0.5421480299901839 6.031446825991914 0 0 -1
1226 402 4 -5.659271297167653 -4.752321718687235 6.621717504044423 -1 0 0
696 226 2 -6.630141219088131 -0.8953886275201367 0.21119695199139485 1 0 0
941 307 4 -4.7985695849745795 -1.3567675540889796 0.9129439223662573 0 -1 -1
1103 361 4 -2.481212258382052 -0.8975249654612473 1.5011763488886356 0 -1 0
127 36 4 -0.07531701587905808 -5.824417513923064 2.1659176515981122 -2 0 -1
1101 361 2 -2.3815778736194235 -0.4292711382763548 1.3569246688500338 0 -1 0
1404 462 2 -1.2558433454884956 -1.0151078558940885 0.3926411776355037 1 1 1
627 203 2 -0.9778206576208933 -0.20920939283811693 1.2094315178523876 1 1 -1
628 203 4 -1.0414269154009732 -0.1162665249315052 0.72226856349612 1 1 -1
1406 462 4 -1.2007547377255527 -0.5634545978140131 0.5999631171833562 1 1 1
921 301 2 -4.610518317546393 -6.138557342424089 1.9783880750502196 1 -2 -2
923 301 4 -4.732810195892206 -5.738735871352617 1.7042073710852836 1 -2 -2
922 301 4 -4.488232426126303 -6.538387565177071 2.2525857367796878 1 -2 -2
1389 457 2 -6.683480234939425 -4.707868717599561 1.543337541277592 0 4 0
1390 457 4 -6.205064036842656 -4.853160435660802 1.541663017769099 0 4 0
1174 385 4 -5.221992694004393 -5.863737705974948 1.6535820090101272 0 0 0
106 29 4 -2.747824012169315 -4.5639557622989555 1.2562405392345943 1 1 -1
353 111 4 -0.12804117027463238 -5.448592797198973 1.8626658323189786 0 -1 0
563 181 4 -6.676408728622241 -5.48321832878148 2.880331943948794 0 -1 -1
190 57 4 -6.037875178630622 -4.418537739974313 1.3146881793359901 0 0 -2
285 89 2 -5.900306745371862 -4.299051540463422 2.3022722842360324 -1 1 2
287 89 4 -6.328280124880666 -4.5426780735295855 2.388727588670519 -1 1 2
1152 378 2 -3.1039376910968985 -3.525712432754345 1.3909744217859512 1 -1 1
1153 378 4 -3.592287236007066 -3.490721739741765 1.4925834221681358 1 -1 1
286 89 4 -5.472322037062121 -4.055431141263361 2.2158035041930804 -1 1 2
344 108 4 -5.432287818537223 -2.3254537064784695 1.7937562703583447 1 -1 0
647 209 4 -5.329133143397295 -3.715002374658645 1.8274459766030786 0 1 0
646 209 4 -4.834018617412709 -2.850107225149569 1.9100995255536388 0 1 0
645 209 2 -5.081559212947159 -3.28253918346891 1.8687830258251779 0 1 0
670 217 4 -6.874643977142511 -2.1435806476313704 0.9465567693908791 0 1 0
669 217 2 -6.514115472022067 -1.7990063940315981 0.9822724436515822 0 1 0
342 108 2 -5.53858553792122 -1.904660824130545 2.0419993148968105 1 -1 0
671 217 4 -6.153561619425446 -1.4544265550928146 1.0179994862373742 0 1 0
343 108 4 -5.644871000987246 -1.48385933148132 2.2902697833220125 1 -1 0
292 91 4 -5.28147225895224 -1.1134152670437492 2.183653245115564 1 0 0
193 58 4 -1.5818526229911976 -1.75861258589787 2.072340414607103 -1 -1 0
192 58 2 -1.9200621808744183 -1.570158199879421 1.7559836986661768 -1 -1 0
194 58 4 -2.2583149385991166 -1.381690923654164 1.4396308438149066 -1 -1 0
1244 408 4 -4.519775096667396 -0.18136664275655515 1.5407151407769542 0 0 -1
629 203 4 -0.9142052633761429 -0.3021516110883514 1.6965704661218133 1 1 -1
1242 408 2 -4.863203076666496 -0.06871699784503119 1.1951958318698053 0 0 -1
1136 372 4 -0.014746992551173744 -4.428904193232959 2.5547416273433496 0 0 0
291 91 2 -4.9641415233252735 -0.9088942873238697 2.5114952479616437 1 0 0
1238 406 4 -0.1304735206868012 -1.2053104054765007 3.3050237930505055 0 1 -1
66 16 2 -6.792790044125913 -0.8671379645137381 2.891106989990663 1 0 -1
67 16 4 -6.327988974153471 -0.7166391829693646 2.99745864106288 1 0 -1
293 91 4 -4.646814692681315 -0.7043817208610634 2.839354583299916 1 0 0
1331 437 4 -1.9889117822764608 -0.8738430784431397 3.2818352129419783 0 0 -1
1329 437 2 -1.6895482156464974 -0.6462280698491205 2.952325455367514 0 0 -1
1330 437 4 -1.3902051617131803 -0.4186133598285513 2.622811692238244 0 0 -1
1171 384 4 -1.0137273645766212 -0.12619019091701872 2.410914581512441 -1 1 -1
829 270 4 -6.728280972136723 -5.60177426903178 3.3819432653209085 1 0 0
828 270 2 -6.481365105239279 -5.949900640099071 3.642437907404165 1 0 0
1370 450 4 -5.786942671231673 -6.062579253756838 4.065074770267315 2 0 -1
1369 450 4 -5.149531267280289 -6.671094895830203 4.537739163071169 2 0 -1
1368 450 2 -5.468230902515388 -6.366857347036522 4.301410708160909 2 0 -1
1372 451 4 -1.1302159262047518 -6.791068204942502 4.208085485028905 0 0 1
830 270 4 -6.234473230836586 -6.298012993448158 3.9029186001021707 1 0 0
557 179 4 -5.068953004137538 -4.904465921111649 3.999154215637169 -1 0 -1
555 179 2 -5.190695589363899 -4.744806523832478 4.457090358648905 -1 0 -1
416 132 4 -1.7080237375502 -5.470231927037466 4.126021387068511 1 -1 0
414 132 2 -1.9625109851422544 -5.091568203814301 4.330546057012023 1 -1 0
466 149 4 -0.38488184531202174 -3.67501188865601 5.062885661196332 1 -1 -2
305 95 4 -6.388664416468235 -2.752943786215964 4.475589240526767 -1 1 0
303 95 2 -5.920806094931939 -2.680907319934123 4.314623622673227 -1 1 0
547 176 4 -5.203779200831199 -3.0432241595764156 4.027165337806146 0 -1 -1
304 95 4 -5.452936238358098 -2.608859027691681 4.153663203190621 -1 1 0
546 176 2 -4.874530744025692 -2.7257740346834707 3.8251652217182204 0 -1 -1
86 22 4 -6.392873361677785 -1.3316069271630937 4.615340088598435 0 0 0
84 22 2 -6.774878374077154 -1.4336957279013671 4.3093320522853515 0 0 0
118 33 4 -4.640115305883832 -1.9329362177264648 3.7519426451282856 0 0 -1
548 176 4 -4.545250318590783 -2.4082842077017004 3.6231733277458185 0 -1 -1
117 33 2 -4.475021400627118 -1.5348898919528833 4.005509200207875 0 0 -1
1148 376 4 -3.591254192129239 -1.8907230465644127 4.443357806331038 1 -1 1
1147 376 4 -2.6255651027703477 -1.9337435662312232 4.187171379213441 1 -1 1
436 139 4 -2.2817459354516667 -2.174289320753801 3.8902400809963686 -1 -1 -1
1146 376 2 -3.108421952057302 -1.912248712593951 4.3152743841993235 1 -1 1
435 139 2 -2.200737801455079 -1.7441795850814508 3.6484842954168806 -1 -1 -1
437 139 4 -2.1197154708972987 -1.314056514006774 3.4067123172192386 -1 -1 -1
1255 412 4 -4.073766944959176 -0.7297421353039366 4.057074252648199 0 0 -1
119 33 4 -4.309923679080885 -1.1368270353093348 4.259084157810469 0 0 -1
1254 412 2 -3.6347254100897524 -0.8261275444398367 4.276063176597338 0 0 -1
1256 412 4 -3.195698253306854 -0.9225014271872325 4.4950631483349515 0 0 -1
561 181 2 -6.747703005091317 -5.838536290057316 2.535839798239224 0 -1 -1
1466 482 4 -6.267508971225701 -4.013885407813465 5.49328352581977 1 1 -2
556 179 4 -5.312450156745713 -4.585135911538663 4.915011620258055 -1 0 -1
415 132 4 -2.217038036083308 -4.712884898995647 4.53505898229256 1 -1 0
464 148 4 -2.07585111818104 -4.5908979280884346 4.9812057006004355 -2 1 1
1464 482 2 -6.597639421863711 -4.385336270783318 5.438132923368005 1 1 -2
1465 482 4 -6.927792009411784 -4.756800129618831 5.3829917946987225 1 1 -2
1475 485 4 -5.051709667205444 -3.5795646364800913 5.564014224725795 0 1 -1
1473 485 2 -4.7354029407981075 -3.4829819813733303 5.189002222065789 0 1 -1
1272 418 2 -3.5796610326290783 -3.741515036741791 5.030994256608418 3 0 -1
1274 418 4 -3.1268743493483555 -3.7690852293266754 5.24122010744324 3 0 -1
462 148 2 -1.7418517766991817 -4.309777420363795 5.2249789688647645 -2 1 1
463 148 4 -1.4078414497282692 -4.028695803341326 5.468728838434537 -2 1 1
38 8 3 -1.5313198112747617 -3.6008511279895483 5.228497800864544 -1 0 -1
868 283 4 -1.1270446015256321 -4.38975551434345 5.741895495310732 2 0 -1
465 149 2 -0.2480595552787694 -3.22329884903603 4.897851740320779 1 -1 -2
467 149 4 -0.11123267524178426 -2.7715628682414497 4.732831072638264 1 -1 -2
1360 447 4 -6.75362081860612 -2.588010539627115 5.135252826685791 0 1 0
1474 485 4 -4.419100637165607 -3.386395741074042 4.814016989718859 0 1 -1
1273 418 4 -4.03248386967655 -3.713962287998715 4.820770401774928 3 0 -1
36 8 1 -1.6955317927814708 -3.1734084797054707 5.303542360616813 -1 0 -1
40 8 3 -1.5815436953249153 -3.0343608800140234 5.721949409305216 -1 0 -1
39 8 3 -1.524473326442432 -2.880207674957303 4.987186057900906 -1 0 -1
37 8 3 -2.153935590949939 -3.1815449790842347 5.2662239837044105 -1 0 -1
1193 391 4 -5.2724753226091625 -4.987590331606001 6.77132331868892 1 1 -2
1359 447 2 -6.5059621656869115 -2.2152397264786283 5.358232503767339 0 1 0
1361 447 4 -6.258271946012664 -1.8424915251365743 5.581209165234814 0 1 0
713 231 4 -6.113193969269151 -1.392376702989543 5.4467180880074375 0 0 0
711 231 2 -6.285664963212412 -0.9529077839681536 5.282058005241753 0 0 0
712 231 4 -6.458136778535808 -0.5134232646884879 5.117426958415772 0 0 0
1399 460 4 -5.405568698573785 -1.1783407983976593 5.603347992657323 0 0 1
1398 460 2 -5.0315036590648035 -0.8475946410234672 5.629444130877999 0 0 1
99 27 2 -3.861948401666634 -0.3337555859201676 5.424548926409069 1 0 -1
101 27 4 -4.200914101851781 -0.3401028625314156 5.792026848054914 1 0 -1
1400 460 4 -4.657451927621743 -0.5168418292618738 5.655552973282927 0 0 1
100 27 4 -3.522961499458412 -0.3274601571356904 5.057068331418877 1 0 -1
426 136 2 -2.901401312144959 -6.632170796987472 6.330939396555069 -1 1 -2
427 136 4 -3.0516245621516704 -6.302066785805562 5.9867599624102334 -1 1 -2
419 133 4 -3.142318265713063 -2.5782674343105967 6.839632970717881 1 0 0
1225 402 4 -6.2123680690837695 -4.30378248551404 5.919644373715147 -1 0 0
1224 402 2 -5.935820347235848 -4.528055323927868 6.270684605382923 -1 0 0
1191 391 2 -4.836922199515645 -5.093318928589662 6.549666129398224 1 1 -2
1192 391 4 -4.4013834973870605 -5.1990296574563475 6.32804025318623 1 1 -2
867 283 2 -0.823868927799424 -4.762314855133598 5.880706479524554 2 0 -1
869 283 4 -0.5206537606957125 -5.134894070145396 6.019510350315603 2 0 -1
886 289 4 -0.6963730461362095 -3.355188606712405 6.859823067389167 0 0 -2
1001 327 4 -0.3949667215270778 -3.3994744720334427 6.398403450759529 0 1 0
999 327 2 -0.09473695932870316 -3.14754485042315 6.087907535631483 0 1 0
1403 461 4 -2.958252148894852 -2.2230960665379715 6.57115816686429 1 2 -1
1401 461 2 -2.782249780647692 -1.8599890356746516 6.275899090094053 1 2 -1
1402 461 4 -2.6062168967174717 -1.4968817458415855 5.98065835380099 1 2 -1
738 240 2 -0.786892722860951 -0.21410669576113012 5.853617837932944 0 0 -1
940 307 4 -4.035822717333669 -1.6382217392755982 0.3307107684135026 0 -1 -1
697 226 4 -6.559914462135307 -0.4118756045427659 0.3173771825760867 1 0 0
562 181 4 -6.818972819917554 -6.193837338151266 2.1913155518187315 0 -1 -1
1352 444 4 -0.04951081854223919 -6.669490380847091 4.255311803656085 2 2 0
802 261 4 -0.15707963366067126 -2.173372242102829 4.393144787180765 -1 0 0
412 131 4 -2.745938270356058 -6.887594985503278 5.50479580158973 0 1 1
887 289 4 -1.293743269098282 -2.558262071635352 6.769809806666879 0 0 -2
650 210 4 -1.771942937792957 -4.184285730412038 0.01967458338065503 0 -1 0
801 261 2 -0.03183881951662925 -2.000058752107255 3.9411656006310607 -1 0 0
947 309 4 -0.16149099878863693 -6.741197494502082 6.232695059318788 0 0 -1
253 78 4 -6.857947453000135 -0.3104272084565481 5.1169763248490785 0 1 0
622 201 4 -6.916849843726285 -3.4272605365424456 6.493610952698493 0 1 0
1045 342 4 -4.767088059374189 0.268837283748881 -6.056753918773737 0 1 0
1044 342 2 -4.39692517563367 0.5827218794515803 -6.176984766811762 0 1 0
892 291 4 -3.6792211498541665 0.5914567812954136 -6.096688142193985 1 -1 2
1046 342 4 -4.026759640677269 0.8966100077291537 -6.297192626892248 0 1 0
962 314 4 -2.2075399476940554 1.003025802741153 -5.625190682897905 2 -1 0
1469 483 4 -4.171984909345886 6.901029109944179 -1.6570661171469068 0 0 0
819 267 2 -3.5083287366225933 0.5186037819079294 -0.9938922859978021 0 0 0
821 267 4 -3.604603846452125 0.5572779923929932 -1.4830247159074386 0 0 0
460 147 4 -1.675753331279597 2.1082531076686672 -6.630425049660443 0 0 1
1417 466 4 -0.9221789751043037 6.886659694320043 -0.5591379663781915 -1 -2 1
1506 496 2 -5.992526583239115 1.416029718610747 -5.769401112369485 0 0 0
1507 496 4 -5.914091719667076 1.7474935276857653 -6.135441926282238 0 0 0
891 291 2 -3.386946629856426 0.9720424547926461 -5.956247733258818 1 -1 2
1482 488 2 -4.164942350880912 0.1377282224420699 -3.3926503445239646 1 -1 0
1355 445 4 -3.1385272881412867 1.7910493988408596 -5.936499316709866 -1 0 0
19 4 3 -1.7095745640991131 2.54845734312111 -5.868129980366041 2 -1 0
431 137 4 -2.160892051693846 0.5372936474325367 -6.2804167184984925 -1 -1 1
1106 362 4 -3.641849302002229 2.986785461358575 -5.932531669553436 1 -1 1
1354 445 4 -3.34343647503328 2.7189501682189405 -6.2479999229647625 -1 0 0
1353 445 2 -3.2409623273959243 2.254996389389827 -6.092256830468339 -1 0 0
1483 488 4 -4.479884898519923 0.2799471203417981 -3.7539796365342575 1 -1 0
1476 486 2 -2.04260594971228 3.0900403669248084 -6.773951300360644 2 1 2
1500 494 2 -4.755576246852608 4.388718791358394 -6.636051367802195 0 0 1
1502 494 4 -4.369515427217922 4.071339655483437 -6.621373220916026 0 0 1
1104 362 2 -3.9089040255149405 3.314172504559964 -6.199909012391269 1 -1 1
1105 362 4 -4.175965138835782 3.6415717959512337 -6.4673173682732 1 -1 1
537 173 2 -2.9745054503452852 4.091843916278081 -6.220483344729917 0 0 1
539 173 4 -2.643760574833746 4.367961668687341 -5.966777126070624 0 0 1
1460 480 4 -2.3782428117115253 4.439239220252974 -6.381461594316393 1 1 2
538 173 4 -3.305286740348289 3.815722258156914 -6.474169323880476 0 0 1
1477 486 4 -1.6899611421488683 3.2094970688676696 -6.440195923820468 2 1 2
1458 480 2 -1.8930946984259316 4.38670184619572 -6.49048054235773 1 1 2
1459 480 4 -1.4079525279811074 4.334150325574403 -6.59949610671111 1 1 2
925 302 4 -0.37119563455279425 3.711006832300968 -5.628552676910525 0 -2 1
924 302 2 -0.4633113380866671 3.7653498604661912 -6.117002865396168 0 -2 1
926 302 4 -0.555421970706139 3.8196733035430817 -6.605426117778662 0 -2 1
113 31 4 -6.182855838893173 5.540140988787257 -6.048830846724144 1 -1 1
111 31 2 -5.80719043660747 5.324971677861243 -6.298955317235139 1 -1 1
1501 494 4 -5.141645626913084 4.706097765933454 -6.65073113189813 0 0 1
112 31 4 -5.431515349244204 5.109771033439144 -6.549082832152473 1 -1 1
788 256 4 -0.539691688701291 5.024817924314678 -5.898825857667305 -2 0 1
368 116 4 -0.5068663079899878 5.4670466251823235 -6.134965531067813 -1 0 1
976 319 4 -3.4659480423742344 6.744506900509555 -5.652769616885284 0 -1 1
366 116 2 -0.4262718890895254 5.950125697969178 -6.23569525362372 -1 0 1
367 116 4 -0.3456696318650151 6.4331963400563215 -6.336423722246222 -1 0 1
308 96 4 -0.27570500902598244 6.827677890958399 -6.684386051396274 -1 0 0
1508 496 4 -6.070978693706741 1.0845856164021772 -5.403382922320737 0 0 0
679 220 4 -1.3329147837908633 6.602588639020505 -0.6028307693226534 0 -1 1
371 117 4 -5.990756065768636 0.5903424975583831 -5.480392281948416 0 0 0
369 117 2 -6.474234807850436 0.46531312654281554 -5.505453123388075 0 0 0
1240 407 4 -4.505317812124869 0.6832397596746245 -4.9679784608722715 2 0 2
1239 407 2 -4.252116236324469 1.0874946059329773 -5.117799441907594 2 0 2
960 314 2 -1.9651907694016555 0.577758983780357 -5.523198416105834 2 -1 0
961 314 4 -1.7228392456976078 0.15248761898837687 -5.421216928197502 2 -1 0
1241 407 4 -3.9989085369684108 1.4917876137622452 -5.26766046528194 2 0 2
893 291 4 -3.094694988955163 1.3526318790458076 -5.815794186295776 1 -1 2
1357 446 4 -2.8337619833594534 1.6145525176409183 -5.504961012750765 0 0 0
1356 446 2 -2.773942407919234 1.8580004428394101 -5.072344536293279 0 0 0
20 4 3 -1.7171711973035368 2.7607911555166074 -5.145814829507546 2 -1 0
604 195 4 -1.700529804256627 2.234228140283673 -5.046170790491214 0 0 0
603 195 2 -1.490885556794556 1.8455237989733027 -4.811706675395364 0 0 0
433 138 4 -6.458583932739438 1.8904820656095238 -5.010084959322372 0 -1 -2
1358 446 4 -2.714121360451611 2.1014343762431635 -4.639695575092104 0 0 0
17 4 3 -1.9771387185663811 3.22264143845568 -5.671265342084619 2 -1 0
16 4 1 -1.9414028483882255 2.782772118249397 -5.541572538544697 2 -1 0
18 4 3 -2.3675375854794503 2.6058689147550953 -5.492120133919086 2 -1 0
1439 473 4 -1.6097424657284651 3.323843411224176 -4.371804995095246 1 0 0
1437 473 2 -1.2216813674624756 3.073643272494293 -4.563661701764582 1 0 0
678 220 2 -1.741402540220941 6.3490185569609485 -0.4655613385638136 0 -1 1
1447 476 4 -6.219047705005981 6.135314381864338 -4.862182271011431 0 0 -1
786 256 2 -0.14325109265404304 4.91968953812668 -5.612862224986392 -2 0 1
680 220 4 -2.14988184870442 6.0954406775373915 -0.3282880427037424 0 -1 1
1448 476 4 -5.336833512849731 5.676917099084012 -4.754624914845215 0 0 -1
1446 476 2 -5.77795144686008 5.9061053769481315 -4.808408068008219 0 0 -1
975 319 2 -3.618002244230227 6.270919479216448 -5.601668913927525 0 -1 1
977 319 4 -3.770079683415507 5.797367834919803 -5.550575140869024 0 -1 1
714 232 2 -6.220842985052998 1.1551193664761292 -3.8798554205585245 0 0 0
715 232 4 -5.833344279604902 0.8479394906562379 -3.805834562902456 0 0 0
1443 475 2 -3.941483521834594 6.169310668503665 -0.36381761163617726 1 0 0
778 253 4 -1.6844135352279286 0.976257120735352 -3.2185546693440106 -1 0 0
219 67 2 -1.3529382355937773 0.7353180803217606 -4.633844115079733 0 1 1
220 67 4 -1.5327521947886724 1.1409731907876577 -4.864281401099546 0 1 1
777 253 2 -1.920826774540928 0.645373326340857 -3.5094758028081245 -1 0 0