LAMMPS data file via write_data, version 29 Aug 2024, timestep = 2000001, units = lj

1520 atoms
4 atom types
1020 bonds
1 bond types

-6.932675 6.932675 xlo xhi
-6.932675 6.932675 ylo yhi
-6.932675 6.932675 zlo zhi

Masses

1 1
2 1
3 0.5
4 0.5

Bond Coeffs # zero

1 0

Atoms # bond

953 311 4 -3.023760954692996 -5.936738201494884 -6.539087922967565 0 0 0
1516 499 4 -3.4050131115455584 -5.772577394923328 -6.471893059908988 0 0 1
1334 438 4 -0.510373467805953 -6.281847276014207 -6.46920213558783 1 0 1
1332 438 2 -0.7442896425917487 -5.879315784019912 -6.286819545099333 1 0 1
719 233 4 -0.4989898759389126 -6.688116017125025 -6.478252751825056 -1 1 0
1442 474 4 -6.925354841710615 -5.08129946796179 -6.199188006385461 1 0 0
1440 474 2 -6.434102633126731 -5.033052227593274 -6.278669009228789 1 0 0
1441 474 4 -5.94282698027395 -4.984832351044368 -6.3581415162482156 1 0 0
1517 499 4 -3.6123525045064744 -4.797778599948583 -6.554284217633561 0 0 1
1515 499 2 -3.5086905732257487 -5.285171268062836 -6.513086137136552 0 0 1
656 212 4 -2.8237735074232027 -5.2745211327793236 -5.517144715809982 0 0 0
147 43 2 -1.2097429862172413 -4.868873751430091 -5.592121617568401 0 1 0
149 43 4 -1.0781792770718894 -5.322378472443393 -5.7565156423877095 0 1 0
1333 438 4 -0.9781989487009259 -5.476795298594725 -6.104441497287582 1 0 1
1344 442 2 -6.5770094282060025 -3.6667898220952027 -6.07160972596755 1 0 1
1345 442 4 -6.38373529060477 -3.2970065105904283 -5.796144187665928 1 0 1
161 47 4 -2.5820286595401587 -4.307076767048609 -6.092018430123478 -1 1 0
160 47 4 -1.7569220185049887 -4.328491153521233 -6.656592369867773 -1 1 0
1456 479 4 -1.5028954706026671 -4.032495335672412 -6.564663517229232 1 1 1
159 47 2 -2.169496512189946 -4.317783089555478 -6.374304668370323 -1 1 0
1455 479 2 -1.009912461075029 -3.955782976026022 -6.531530844611922 1 1 1
1457 479 4 -0.5169504884931853 -3.879081918906869 -6.498409222264131 1 1 1
847 276 4 -5.218187148042102 -2.28192636393267 -6.128809555927438 1 0 0
846 276 2 -5.258761222047176 -2.4501290373654814 -6.597927406475307 1 0 0
1200 394 2 -1.796496860469211 -2.7540227753369373 -6.5105506229493715 1 -1 1
1202 394 4 -1.9484683420746718 -2.8688594918054235 -6.0482516839243505 1 -1 1
187 56 4 -0.1119330472712737 6.9163189741231 -5.439447215098009 0 -1 0
664 215 4 -6.730952378223358 3.8391141720422723 -3.0574516036808506 0 -1 0
1007 329 4 -2.1532178592755646 -2.8230007145409397 -5.686536194213078 1 0 0
782 254 4 -0.03413503002002386 -4.40159108521875 -5.717026941870843 -1 1 0
313 98 4 -6.865803830825941 -1.3200134519020421 -6.008567836115695 0 0 0
560 180 4 -6.4778229088707455 -1.2708653186393162 -6.1527887281867395 0 1 1
558 180 2 -6.0277456709763575 -1.298487339846461 -6.368799937332061 0 1 1
559 180 4 -5.577678805555126 -1.3261202437297201 -6.58482085191515 0 1 1
933 305 2 -4.726665851880234 -1.352675742430288 -6.7216487151552435 0 0 0
934 305 4 -5.183525543610663 -1.3323581936771507 -6.519459920262503 0 0 0
452 144 4 -3.913892137403301 -1.1667000511130303 -6.887220844742455 -1 0 0
1363 448 4 -1.6905051367777146 -1.3939137594969884 -6.684265670197338 0 0 1
604 195 4 -5.077857455846457 -0.9389340545346022 -5.861873342577931 0 0 1
935 305 4 -4.269811447286467 -1.3729486143702672 -6.923830955974913 0 0 0
450 144 2 -3.4897193689369352 -0.9038893950103308 -6.855710817256037 -1 0 0
451 144 4 -3.0655480856721278 -0.6410735872285557 -6.824206032004672 -1 0 0
386 122 4 -2.7065067286126534 -0.45050448180108693 -6.806295255979779 0 0 0
227 69 4 -1.5010331563332553 -1.0642074943234534 -6.545225269393314 0 1 0
225 69 2 -1.576573181750709 -0.9399830780735506 -6.066831924398843 0 1 0
369 117 2 -6.824569546908186 0.6227132576696008 -5.676684639883569 1 0 1
371 117 4 -6.585902297331032 0.9965226119482209 -5.907599561112675 1 0 1
218 66 4 -6.674010070132307 0.9089990348970776 -6.2843040942270845 0 0 0
216 66 2 -6.830558961684741 1.0064603891825554 -6.749051248833927 0 0 0
1214 398 4 -5.886618193502667 1.4539261574415403 -6.565641475122636 1 0 1
1408 463 4 -6.477879827078903 4.20346567825061 -6.687193895776672 1 0 1
496 159 4 -3.346588322456867 3.4124107228712215 -5.847760673824721 1 -1 1
103 28 4 -2.416771466151369 3.5192221575150047 -6.616083436665228 0 0 0
104 28 4 -1.5472710165996002 3.799911319005022 -6.209601985221677 0 0 0
102 28 2 -1.9820239213238626 3.65956651473068 -6.412839389117919 0 0 0
745 242 4 -4.992760310731518 5.068995342495234 -6.47980151282356 1 0 1
130 37 4 -4.938959927442452 5.444214586745057 -6.411520586081206 0 0 0
129 37 2 -5.407094783329125 5.565841276488418 -6.538231490809763 0 0 0
744 242 2 -4.515523572379017 4.929787590685665 -6.426013260748538 1 0 1
746 242 4 -4.038322539257075 4.790575069980679 -6.372211404018612 1 0 1
529 170 4 -0.411818811330602 5.144873953767086 -6.851618928409729 0 -1 1
593 191 4 -5.970332642402317 5.406287823717 -6.914999439908112 0 0 1
3 1 3 -3.105100977504109 6.115431906406507 -5.5497626997815015 0 0 0
4 1 3 -2.426618299603494 6.300293178017407 -5.837987546877719 0 0 0
1367 449 4 -0.5806061234580484 5.637883048571175 -5.78166974483223 1 -1 0
471 151 2 -2.205634020263151 -6.607337563474851 -5.472666156739077 0 0 0
472 151 4 -2.0988826056522267 -6.21895935344698 -5.768912127672921 0 0 0
655 212 4 -2.0348901681471716 -5.83211153280311 -5.775562555050321 0 0 0
654 212 2 -2.429324139018526 -5.553319984298692 -5.646359438125441 0 0 0
197 59 4 -6.025345298248261 -3.4767694314185795 -5.7347992612208 0 0 1
195 59 2 -5.70858492330344 -3.416439096522472 -5.352664042624487 0 0 1
1326 436 2 -1.3549109983059413 -3.7004715901943754 -5.375423676262284 0 0 1
1328 436 4 -1.0758641559644853 -4.115232502928014 -5.384904472606434 0 0 1
148 43 4 -1.3413099305283476 -4.415382451976832 -5.427732907285199 0 1 0
1295 425 4 -6.797260549808823 -3.7960770626735196 -6.666865147289036 0 0 1
196 59 4 -5.391826123552096 -3.3560995168872165 -4.97053511802491 0 0 1
1327 436 4 -1.6339643851185668 -3.2856764747637 -5.365961642700514 0 0 1
1005 329 2 -1.9905542616376195 -2.6274973572759337 -5.256040476147842 1 0 0
1006 329 4 -1.8279046334737663 -2.431978058574276 -4.825576402584831 1 0 0
349 110 4 -6.280906381109547 -2.3764122427344043 -5.001196062252565 0 0 0
348 110 2 -6.771357508926807 -2.38936044855901 -5.097663233795831 0 0 0
537 173 2 -3.802922537112685 -1.3693163136714368 -5.128399529230019 0 0 1
538 173 4 -4.012135983954737 -0.9220313887442287 -5.20687343104522 0 0 1
539 173 4 -3.5936822481052113 -1.8166109835788704 -5.049922015871727 0 0 1
453 145 2 -1.1846553998400824 -1.3199558735016863 -5.004286995187694 0 0 1
455 145 4 -1.467019081972231 -1.062547868231477 -5.326802454008189 0 0 1
603 195 2 -4.604398809077302 -0.8675726207443958 -5.717888371922006 0 0 1
605 195 4 -4.130921590635043 -0.796184363553431 -5.573905952580979 0 0 1
226 69 4 -1.652153557480511 -0.8157833549476559 -5.588430626632532 0 1 0
1228 403 4 -3.399701005897496 0.4233262700532963 -4.786304467476828 0 0 0
1051 344 4 -3.9011056482608883 1.1025568967298174 -4.99437580715976 1 -1 0
925 302 4 -3.0141069467685395 0.5088804708200468 -4.805680012685838 1 0 0
926 302 4 -2.807885305988004 1.2487369651869504 -5.446049936272171 1 0 0
924 302 2 -2.9109919277343326 0.8787905864211388 -5.125862796132225 1 0 0
1050 344 2 -3.9317517250233296 1.599135822918319 -4.944767589446697 1 -1 0
1052 344 4 -3.9623595410563848 2.0957382286326323 -4.895156480126027 1 -1 0
1357 446 4 -3.8954466540409056 2.394408500384025 -5.162121993178952 0 0 0
683 221 4 -2.0739496006172997 1.130809065763437 -5.061824974440125 0 0 0
681 221 2 -2.077240376789677 1.616304386022852 -5.181340029438132 0 0 0
682 221 4 -2.0805292315231294 2.1017908859968912 -5.300883541275708 0 0 0
1356 446 2 -3.776834541773874 2.7999304030103227 -5.429456542304228 0 0 0
1358 446 4 -3.6582361539348387 3.2054574472152555 -5.696840881925415 0 0 0
223 68 4 -0.06703161209344463 3.6630997600520363 -5.267256737031102 0 1 0
1420 467 4 -0.3958742600291347 2.259848812836069 -5.055150951572492 0 0 0
497 159 4 -3.3536959316893378 4.37758594899493 -5.5862602107220924 1 -1 1
495 159 2 -3.350142700945299 3.894999446997188 -5.717006600031271 1 -1 1
224 68 4 -0.8866743032322626 3.965568901844335 -4.780698877441178 0 1 0
222 68 2 -0.4768638543274747 3.8143289667188816 -5.0239610298798505 0 1 0
292 91 4 -6.237378589702317 5.611929738010667 -4.552348511715222 1 -1 0
1039 340 4 -6.0325283519931086 5.757211121866566 -4.842173785674236 1 -1 0
449 143 4 -1.066470210747404 5.2462292352022795 -4.575564686168361 0 -1 1
447 143 2 -0.9930924214765106 4.752838658916104 -4.541258684215249 0 -1 1
1365 449 2 -0.18219339326863787 5.442425388311537 -5.551304708026252 1 -1 0
1038 340 2 -5.614171665978427 6.029131021754223 -4.81049344385359 1 -1 0
693 225 2 -4.709862784281401 6.650551324007295 -4.716905447919722 0 -1 0
1040 340 4 -5.195782449176741 6.301091157133575 -4.7787679970652865 1 -1 0
694 225 4 -4.254754749694762 6.705183893983573 -4.916640185196964 0 -1 0
1187 389 4 -4.29316102789363 6.501361699398161 -5.279064229005892 0 0 0
1185 389 2 -3.8629760250060325 6.36562293578069 -5.494764170061709 0 0 0
473 151 4 -2.312410034961104 6.869621410525731 -5.176426696346372 0 -1 0
5 1 3 -2.4747067717101143 5.837236913254342 -5.246271473165994 0 0 0
1186 389 4 -3.432812871310807 6.229867038589041 -5.71046719602173 0 0 0
1 1 1 -2.6600116492114236 6.200125933467898 -5.449679374536119 0 0 0
2 1 3 -2.6375897918828164 6.561094016256918 -5.165401566779171 0 0 0
779 253 4 -1.4296108638473728 6.640059593382834 -4.734819823757988 0 -1 0
950 310 4 -1.4386988784239738 6.46480126949356 -5.082906147310069 0 -1 0
186 56 2 -0.36441310575041647 6.883184148638561 -5.0091457077268435 0 -1 0
948 310 2 -1.1726455441186843 6.145761977052917 -5.361122751102103 0 -1 0
949 310 4 -0.9065528885043828 5.8267096568998955 -5.6393842901745925 0 -1 0
93 25 2 -4.70909616690158 -6.566236621227865 -3.7845727130240587 0 1 1
95 25 4 -5.122930161989009 -6.837814230113521 -3.855153893372177 0 1 1
572 184 4 -4.178434028130246 -5.918398426180853 -3.688231630289252 0 1 0
1085 355 4 -1.5144019382941263 -6.184938331048215 -3.5632528435804667 0 0 0
778 253 4 -1.7767937343886173 -6.855855981073013 -3.8728779977378767 0 0 0
188 56 4 -0.6168776832083855 6.850059554854782 -4.578844061527935 0 -1 0
1373 451 4 -5.2927443270780055 -5.14207426364006 -3.5776031138742046 0 0 0
570 184 2 -4.000179012977744 -5.453364605430264 -3.644065046756043 0 1 0
571 184 4 -3.8219185500544155 -4.988293457793739 -3.5998720903230192 0 1 0
1146 376 2 -5.866841104910452 -3.6971945528457657 -3.558793860004955 1 1 0
413 131 4 -5.617269051143468 -4.628518557676666 -4.393771351902431 -1 1 0
1147 376 4 -5.66039365314656 -3.353927716372075 -3.8580440784813756 1 1 0
411 131 2 -5.184326130071615 -4.53354040315828 -4.162335137796752 -1 1 0
412 131 4 -4.75137207643219 -4.4385765743785965 -3.9309429921214156 -1 1 0
1016 332 4 -3.7617521969717096 -3.9466067045049233 -3.554990490502025 1 0 0
1014 332 2 -3.625114217613557 -4.416098373085431 -3.659441091347451 1 0 0
1397 459 4 -2.546523987615928 -3.128579127655435 -4.575203008506226 1 0 0
1395 459 2 -2.257049346376013 -3.158917642087761 -4.168676578807122 1 0 0
208 63 4 -1.6106132926030228 -3.3620841787542757 -3.657197458611898 0 0 0
207 63 2 -1.1687242766288737 -3.309283813998195 -3.429311010694268 0 0 0
1396 459 4 -1.9675244234575395 -3.1892734929289555 -3.7621322897181146 1 0 0
454 145 4 -0.9022547108201828 -1.5773114512656268 -4.681769912593543 0 0 1
65 15 4 -3.616599731702426 -0.44497145381782927 -3.87403192975889 0 0 1
1229 403 4 -3.6336535008182596 -0.02446377908949629 -3.923315165601295 0 0 0
63 15 2 -3.447392555693425 -0.8681620991235502 -3.668396025360509 0 0 1
1227 403 2 -3.5166604206631833 0.19944889992073153 -4.354796387166799 0 0 0
373 118 4 -6.537675794877593 2.1173576343730716 -4.26211268406632 0 -1 0
372 118 2 -6.342910403557849 1.8307540415064205 -3.901672378915683 0 -1 0
374 118 4 -6.1481711185433285 1.544171036133768 -3.541222783902032 0 -1 0
838 273 4 -6.701363100815948 2.5093387266582337 -4.2469836545346284 0 0 0
1071 351 2 -0.725597889210915 3.566587588346804 -3.5136487234275475 0 0 0
1073 351 4 -0.467302363758534 3.1523975670938036 -3.621882769391299 0 0 0
697 226 4 -0.49289389910077247 2.8265656486170996 -3.867415906783441 0 0 0
448 143 4 -0.9197204310623996 4.2594227353890455 -4.506978628534345 0 -1 1
1072 351 4 -0.9838957978168459 3.980811855297974 -3.405390568783665 0 0 0
291 91 2 -6.687535519376847 5.777862142078687 -4.4116256074291 1 -1 0
695 225 4 -5.164990650313007 6.595895457308608 -4.517170288517777 0 -1 0
777 253 2 -1.6032068028229394 6.8247750568677565 -4.3038614768524335 0 -1 0
433 138 4 -0.35677390976719914 -6.821453534700541 -4.317841351700978 0 0 0
432 138 2 -0.30076415098855447 6.720843188015648 -3.9403506719625634 0 -1 0
94 25 4 -4.295258296213006 -6.294647187693084 -3.7139819999391763 0 1 1
1083 355 2 -1.8910043596008175 -6.036118152576541 -3.269991439799168 0 0 0
1371 451 2 -5.023911427906492 -5.223093762920887 -3.163883364174033 0 0 0
1372 451 4 -4.755052449900368 -5.304139036497319 -2.750169962895744 0 0 0
1015 332 4 -3.488466879770616 -4.8856007818487 -3.763872158344622 1 0 0
1084 355 4 -2.2676042570489585 -5.887271992291806 -2.976694206053521 0 0 0
1148 376 4 -6.073322505686468 -4.040419856952375 -3.2595109163283347 1 1 0
1061 347 4 -2.294120674756794 -3.185821817324971 -2.8085150321682337 0 0 0
209 63 4 -0.7268507188334122 -3.2564585552379026 -3.201400993877832 0 0 0
574 185 4 -0.40519387790047723 -3.1553996551367294 -2.4597160723072466 0 0 0
573 185 2 -0.8217452255802651 -2.9123089691697324 -2.327835913348324 0 0 0
952 311 4 -2.0894829398804986 -5.887912269882832 -6.892320946330554 0 0 0
1045 342 4 -2.7759904588370503 -2.239815387513996 -2.5023308004704967 0 0 1
64 15 4 -3.278176637709432 -1.2913423575495515 -3.462756786163339 0 0 1
1054 345 4 -2.6730243331345718 -0.7540824170275308 -3.0559965670128215 1 0 0
1055 345 4 -1.7177495611328915 -0.623118152743304 -2.7908918102182265 1 0 0
1053 345 2 -2.19538508864673 -0.6885970103443361 -2.9234625868056736 1 0 0
659 213 4 -6.019102025646071 1.3248441119899266 -3.2869402011386035 0 0 0
657 213 2 -5.532172096909436 1.2369092846289973 -3.3587489747002874 0 0 0
1010 330 4 -1.9380841491351488 0.37677517055101967 -2.7091659088922273 0 0 0
725 235 4 -2.613656148880193 6.723010770481577 -0.9691797912924621 0 -1 1
658 213 4 -5.045233059804245 1.148951523660483 -3.430523360203927 0 0 0
919 300 4 -4.831935336055151 1.507940341643582 -3.4768358363400775 1 0 0
918 300 2 -4.6914448729929035 1.9868325366719317 -3.446417303155798 1 0 0
822 268 2 -3.2872046348581434 2.254722675694496 -2.6960728350466923 0 1 0
1468 483 4 -0.3131833509375754 1.741083524016998 -3.1091416813646924 0 0 1
1467 483 2 -0.05727986177990692 1.390271849815583 -2.8612273574688225 0 0 1
698 226 4 -0.15114972651067585 2.099774405684481 -3.2715790526086153 0 0 0
696 226 2 -0.3220142021568181 2.4631597654524637 -3.5694912003851487 0 0 0
1251 411 2 -5.083794613990067 2.9396221196713306 -2.941872530332126 0 0 1
1253 411 4 -5.399904161486476 3.287680458037685 -2.7718003047434543 0 0 1
1252 411 4 -4.767694762135659 2.59156334996349 -3.111947477809119 0 0 1
920 300 4 -4.5509528402954285 2.465732287379533 -3.415968355702896 1 0 0
824 268 4 -3.5909136050789305 2.164964617473068 -3.0829878905215895 0 1 0
138 40 2 -5.939018536478138 3.6896449129692157 -2.8462820277075904 1 0 0
139 40 4 -6.3520200061564145 3.7681281456689906 -3.1169888145905342 1 0 0
140 40 4 -5.526030777894122 3.611169859529717 -2.57557022384279 1 0 0
77 19 4 -1.9057163717260752 4.505969792700746 -3.4588064063636006 0 -1 1
1477 486 4 -6.680323288511778 5.483938815405103 -2.261379666454715 1 0 1
1075 352 4 -2.9019722674165354 4.858722580006056 -2.8160982836306525 0 -1 0
76 19 4 -2.7721625180874643 4.917714609711062 -3.1764061908075236 0 -1 1
1074 352 2 -3.149522437889224 4.72805672802088 -2.401810252031902 0 -1 0
75 19 2 -2.3389384499365815 4.711849099511596 -3.317608496430917 0 -1 1
296 92 4 -1.250269184711117 5.776862579632401 -3.144572112963518 0 -1 0
1104 362 2 -0.2170771114099213 5.356934035310191 -2.8677459711657964 0 -1 0
1106 362 4 -0.4565304132033262 5.673483220901326 -2.5636626929218616 0 -1 0
1088 356 4 -3.893956015451835 6.588162885290838 -2.494538747306416 1 0 0
1086 356 2 -3.4248540208885454 6.754811472072848 -2.5412454381301934 1 0 0
1087 356 4 -2.9557646202007555 6.9214590199548045 -2.5879682210963524 1 0 0
295 92 4 -1.3055829192051616 6.754983598706179 -3.345142039597194 0 -1 0
294 92 2 -1.2779127694716599 6.265925984937104 -3.2448324865162332 0 -1 0
434 138 4 -0.2447689955190237 6.397793288077925 -3.5628517272696714 0 -1 0
715 232 4 -3.704609806767521 -4.959801471541498 -1.0268492036025352 0 1 0
318 100 2 -2.4201051694761704 -5.666878095640838 -1.4070332567300545 0 0 0
319 100 4 -2.0040046732662113 -5.471386592030038 -1.6036521441718228 0 0 0
1450 477 4 -3.5391684049686063 -4.608743609968958 -0.8970384131297766 1 0 1
1046 342 4 -3.5198783135261404 -1.6210306687466536 -2.249927920090273 0 0 1
1059 347 2 -2.1988877106119937 -3.0142532585433575 -2.348625398143693 0 0 0
1060 347 4 -2.1036638428030385 -2.8426913706966013 -1.888746742643448 0 0 0
575 185 4 -1.2382903856310143 -2.669220332891836 -2.1959515423964384 0 0 0
12 3 3 -6.821204922681835 -2.021843362357035 -1.4764656824839926 1 0 0
1026 336 2 -2.249789723827737 5.956588923027961 -1.0178529408037265 0 -1 0
491 157 4 -3.8698378201226427 -1.7320885717712466 -2.112443685509016 -1 0 1
489 157 2 -4.12928955413852 -1.5965470840912899 -1.7070976712238992 -1 0 1
490 157 4 -4.388730030986199 -1.4610219761058698 -1.301716626555143 -1 0 1
1044 342 2 -3.147920089394367 -1.9304197823366505 -2.37613134104291 0 0 1
131 37 4 -5.875229841569106 5.687472034905305 -6.664941374669642 0 0 0
1008 330 2 -2.092336318058446 0.6631977050352604 -2.3294723391852745 0 0 0
1009 330 4 -2.2465964025770884 0.9496192452896494 -1.9497894340785653 0 0 0
358 113 4 -5.8173503802350615 1.552440647058335 -1.303252184852957 0 0 0
357 113 2 -6.0786700706285375 1.4913665116225872 -1.7251391221162502 0 0 0
359 113 4 -6.339987391091885 1.430270253355173 -2.1470330090002596 0 0 0
523 168 4 -4.656709396796194 2.1292901678019875 -1.0078779293009887 0 0 1
823 268 4 -2.9835069747644427 2.34444150807076 -2.3091615822483376 0 1 0
1380 454 2 -2.7586882885320283 1.6808879417328992 -1.7564472972733451 0 0 0
1381 454 4 -2.9256413166141364 2.0872743213328406 -1.9951703344106346 0 0 0
1382 454 4 -2.5917507097421666 1.2745098359888694 -1.5176987651847458 0 0 0
143 41 4 -6.552789102880906 3.182403531303672 -1.1864343772389825 0 0 -1
135 39 2 -2.5178888225880325 2.609253493578731 -1.0054448783950238 1 0 -1
137 39 4 -2.6537370670922407 2.2121647122505377 -1.2772548903446392 1 0 -1
1160 380 4 -0.7945686875957881 2.1806695706918386 -1.1413081141825723 1 0 0
236 72 4 -1.9007745418069952 3.7213015044553788 -2.5105238593730266 0 0 0
1158 380 2 -0.7112140966928661 2.662206758472806 -1.0355721690302873 1 0 0
597 193 2 -5.960338354530382 4.520274318772666 -1.8349935534066584 0 0 1
598 193 4 -6.048461142842987 4.030674171043802 -1.7849343208433166 0 0 1
1021 334 4 -4.938902367503503 4.55236351921266 -1.1549805087985254 0 0 0
588 190 2 -3.5147604266681647 4.36634937845666 -1.3977302024451648 0 0 0
1076 352 4 -3.397082013335034 4.597412943313944 -1.9874955576537068 0 -1 0
590 190 4 -3.4720524051619543 4.223388686257596 -1.8749613485684264 0 0 0
234 72 2 -1.9328578913422156 4.028079071633749 -2.116994972678801 0 0 0
235 72 4 -1.9649479244005714 4.33481131024412 -1.7234665225566328 0 0 0
1423 468 4 -2.1105539851883717 4.653296945646131 -1.87922310653892 0 -1 0
599 193 4 -5.872209848054896 5.009881831165269 -1.8850165351168295 0 0 1
1004 328 4 -5.814180221421645 5.804330333972114 -1.2833213800283714 1 0 0
1002 328 2 -6.147722402478666 5.613459029229487 -1.6032386994674048 1 0 0
1003 328 4 -6.481205110184553 5.42261395122462 -1.923153381542199 1 0 0
322 101 4 -5.12028175395783 4.8971435204007365 -1.154546215213485 0 -1 0
321 101 2 -4.882254489023066 5.315697561096137 -1.019775849535697 0 -1 0
1424 468 4 -2.2919101978734195 5.366368472942709 -1.2020304878879033 0 -1 0
1422 468 2 -2.201221047017892 5.009810690483239 -1.5406383136017026 0 -1 0
1027 336 4 -2.4459030056080517 6.4044466076981115 -1.122488620376264 0 -1 0
619 200 4 -4.603650973215144 -6.347273998716767 -0.11944988416687571 0 0 0
618 200 2 -4.236747655116162 -6.662992114936297 -0.24484747499009285 0 0 0
620 200 4 -3.8698697724158477 6.886647764305105 -0.37023570255136795 0 -1 0
320 100 4 -2.836212762344211 -5.862359927112115 -1.2104325812027992 0 0 0
724 235 4 -3.4820556001640854 6.846903381595254 -0.4890055177788256 0 -1 1
723 235 2 -3.0478513468367083 6.784961226125156 -0.7291126819608696 0 -1 1
185 55 4 -4.570572129605142 1.6526097999667761 -0.08590142065757915 0 0 0
714 232 2 -3.4641912326284445 -5.39560032769178 -1.0745718453762243 0 1 0
716 232 4 -3.2237897694294757 -5.8314131607447734 -1.1223052189183118 0 1 0
175 52 4 -1.3277405050970916 -5.914754836735556 -0.25668563345580375 0 1 0
961 314 4 -5.834452518946444 -4.24742671462364 -0.543540122996812 1 0 0
1179 387 2 -6.84011928709739 -4.6894699421894215 -0.43293577331975874 1 0 1
960 314 2 -5.457300781407775 -3.9244475619568755 -0.4846394559487672 1 0 0
962 314 4 -5.080153363703134 -3.601502452986591 -0.42572084953910405 1 0 0
1451 477 4 -4.02619017372493 -3.902958360532021 -0.3825469029809728 1 0 1
1449 477 2 -3.7826526044950346 -4.255852245107393 -0.6397952739500146 1 0 1
401 127 4 -0.7448632832788185 -3.300604696449117 -0.897997440347082 0 0 0
1011 331 2 -4.822177215552703 -2.9056105007663002 -0.4238217982048117 1 0 0
1013 331 4 -4.736012850321806 -3.393892801808667 -0.3592595856982118 1 0 0
1012 331 4 -4.908336438412899 -2.417352652137317 -0.4883895916791322 1 0 0
400 127 4 -1.2754735952815555 -3.084393332474909 -0.07841382366865818 0 0 0
399 127 2 -1.0101668970055053 -3.1925182837028947 -0.48820719226446274 0 0 0
718 233 4 -0.09836960246945223 6.650150427218046 -5.728801383076238 -1 0 0
166 49 4 -5.174532000944502 -2.185771698429221 -0.2835324498110711 0 0 0
780 254 2 -0.0014709567682565589 -4.00662383847382 -5.412193792106323 -1 1 0
377 119 4 -1.3632204012609803 -1.0749885914742268 -0.03807396074978493 0 1 0
1346 442 4 -6.770322781691998 -4.036593830629535 -6.347068154892441 1 0 1
375 119 2 -0.9370183583620594 -0.9243947212288273 -0.2517835398205213 0 1 0
376 119 4 -0.5108187102798549 -0.7738049648352537 -0.46548687439025593 0 1 0
1233 405 2 -0.03486804749252178 -0.22692183172294916 -0.48550215473318115 0 -1 0
1234 405 4 -0.1850064009893556 -0.6763832436816618 -0.6449348206041664 0 -1 0
81 21 2 -2.7804185417347655 0.7747496421130299 -0.9495086045160348 0 0 0
83 21 4 -2.9658439856084735 0.34815863483266896 -0.7661147660729031 0 0 0
82 21 4 -2.5950017867896062 1.2013604358958916 -1.1328851115150564 0 0 0
522 168 2 -4.726045482768516 1.7726106725757382 -0.664395176505181 0 0 1
524 168 4 -4.795371933682242 1.4159297461341962 -0.32091334312000697 0 0 1
1019 333 4 -2.3179841248136532 3.188618561543514 -0.36965719735216107 1 0 -1
136 39 4 -2.382059103427173 3.0063372731105966 -0.733631653870182 1 0 -1
1159 380 4 -0.6278549367577998 3.1437610089264814 -0.9298633985140525 1 0 0
151 44 4 -0.7213371718080887 3.495500457717157 -1.1417119789347432 0 0 0
141 41 2 -6.233865732020669 3.5177015875539666 -0.9971024514880581 0 0 -1
142 41 4 -5.914939170413065 3.8530360088402147 -0.8077673210904074 0 0 -1
1020 334 2 -5.235175286093522 4.1816751544412725 -0.9974595137589288 0 0 0
1022 334 4 -5.53142236545069 3.8109994086537076 -0.8399255700912914 0 0 0
951 311 2 -2.556614729587626 -5.912322028695703 -6.715713918460944 0 0 0
589 190 4 -3.5574388070416676 4.509278568636898 -0.9204830469302985 0 0 0
1183 388 4 -3.5620334435046437 4.626897352832513 -0.5390490513893137 0 -1 0
150 44 2 -0.6617391625619667 3.6718101689133333 -0.6776393139331648 0 0 0
152 44 4 -0.6021330069288954 3.8481017584753716 -0.2135684857394382 0 0 0
323 101 4 -4.644232750618754 5.73423295108799 -0.88500840657532 0 -1 0
642 208 2 -4.905975245503264 5.901461768102 -0.05022757175079034 0 0 1
644 208 4 -4.738875202518332 5.7234066516023985 -0.48653233363864784 0 0 1
1182 388 2 -3.6807146081223228 5.072279997523855 -0.3452191225738392 0 -1 0
344 108 4 -3.499109683561907 5.73208065069782 -0.28142680554096955 0 0 -1
1184 388 4 -3.7993871625832423 5.517610657848028 -0.15139252524778316 0 -1 0
1028 336 4 -2.0536212577287998 5.50871551118145 -0.913212192034427 0 -1 0
793 258 4 -5.759120676317217 5.67540178982047 -0.897795746960496 0 -1 0
794 258 4 -6.16733673589109 6.28697760643684 -0.22002463514338927 0 -1 0
792 258 2 -5.963234301214995 5.981199312359558 -0.5589009052518559 0 -1 0
717 233 2 -0.2986899331077766 6.913679238848912 -6.10352706649378 -1 0 0
442 141 4 -1.261172010160163 -2.6903185024663694 -6.881964600860728 -1 0 1
591 191 2 -6.460169959481605 5.445527665466322 -6.8224890087198835 0 0 1
1362 448 2 -2.1058220356859922 -1.603747126619868 -6.8672109093239335 0 0 1
704 228 4 -4.629777327318703 -5.921615862614168 0.31102625836257264 0 0 1
750 244 2 -3.996299776136006 -6.301998575392305 0.82672288618859 0 1 0
751 244 4 -3.654018360774788 -6.492877117705888 1.1372377839009347 0 1 0
752 244 4 -4.338551616666543 -6.111132815893603 0.5162241474591599 0 1 0
87 23 2 -6.094750759607599 -5.401264015293776 0.7559407844190533 1 0 -1
88 23 4 -6.2477273845123875 -5.80296197486495 0.5004949953965214 1 0 -1
89 23 4 -5.94178877265702 -4.999574889471432 1.0113604421814637 1 0 -1
702 228 2 -4.88701420973443 -5.5011348289256485 0.22723378374392172 0 0 1
703 228 4 -5.144230345406397 -5.080631435926179 0.14343476175567743 0 0 1
176 52 4 -1.943933398763997 -5.7781119208033385 0.5189797454716488 0 1 0
174 52 2 -1.635837993692077 -5.846435966679363 0.13113979128919562 0 1 0
275 85 4 -5.6102017814925595 -4.782633627567495 0.9383134447642538 0 0 0
1181 387 4 -6.610759618993566 -4.595395994475854 0.0012688707066981512 1 0 1
1131 371 2 -0.7434534544488766 -3.5388529998239404 1.115255776558996 0 0 0
1132 371 4 -0.4528098381467764 -3.238595327583499 1.3897809321556769 0 0 0
999 327 2 -2.624560051252173 -2.863278995915949 0.6933548460231511 0 1 0
1000 327 4 -2.2886448390882017 -2.8930288592709075 1.0625240916864984 0 1 0
1001 327 4 -2.9604568540698435 -2.8335385859902447 0.32420109250315376 0 1 0
167 49 4 -5.462625280218478 -1.4558645075615153 0.33631338012608375 0 0 0
850 277 4 -6.47978791941387 -0.7557485326042297 1.107566810900514 1 0 0
1519 500 4 -6.174337663021646 -0.7894598264513746 0.8601441040182317 0 0 0
849 277 2 -6.813312277157773 -0.43616531221014027 0.9161744633810461 1 0 0
1518 500 2 -5.846355482278066 -0.9421941250194553 0.5150690315921432 0 0 0
1520 500 4 -5.51833528085969 -1.0949001224232964 0.1699845696772341 0 0 0
630 204 2 -3.4909089019699144 -0.496774283821407 1.209799713129891 0 1 0
631 204 4 -3.2674167105691043 -0.8203713001051729 0.9010284185874463 0 1 0
610 197 4 -2.8830454781498247 -0.9351277376543753 0.8343201802804053 0 0 0
609 197 2 -2.699733564352264 -1.1730585035421655 0.43459838814224744 0 0 0
1195 392 4 -0.8191238179092742 -1.2374356266100304 0.8629153838265202 0 0 0
915 299 2 -5.5763053504502915 0.824644091058837 0.92449217345824 0 0 -1
916 299 4 -5.336587216703191 0.39166037291256667 0.9957168114333131 0 0 -1
1348 443 4 -2.5295051293781095 0.6164264174875393 0.9095997835308517 1 0 0
1349 443 4 -1.5551288239211611 0.7269916443157837 0.7137712840568736 1 0 0
1347 443 2 -2.04232062658142 0.6717163072242023 0.8116786494504487 1 0 0
622 201 4 -1.3688489994912323 0.7668730685927067 1.061459489551291 0 1 0
901 294 4 -6.012929253547942 1.5760727029374038 1.083820809799853 1 0 -1
900 294 2 -6.469313082549674 1.4215364091192773 1.2173954226527597 1 0 -1
917 299 4 -5.816045192269917 1.2575943125736253 0.8532664625866923 0 0 -1
1293 425 2 -6.887033890322646 -3.6598114782944124 6.725841828296881 0 0 0
184 55 4 -4.535531560990949 1.1083805605499766 0.7523434773088823 0 0 0
183 55 2 -4.553063736642221 1.3805026243554754 0.3332279307408621 0 0 0
525 169 2 -3.866082395020737 3.2704177801073975 1.018648195567849 0 -1 0
1018 333 4 -2.214464041445821 2.834222225393512 0.5596974017715801 1 0 -1
1335 439 2 -1.5725929247308532 2.4153008865157797 1.0142440639708508 1 0 0
1336 439 4 -1.8617080142751166 2.680275362282573 0.7040949565700333 1 0 0
1017 333 2 -2.2662222524757705 3.0113985699867833 0.09500771843658735 1 0 -1
1122 368 2 -5.903414461011002 4.258526023590486 0.8429239089764232 0 0 0
1124 368 4 -5.598758145700233 4.286131632518492 0.4474323283300426 0 0 0
1266 416 2 -5.1570285163513985 4.5419154732751235 0.06357904883407435 1 0 0
1267 416 4 -5.641735118522982 4.419505774871519 0.07302064042374268 1 0 0
526 169 4 -3.7984308297610854 3.6518704843543284 0.7025425946662972 0 -1 0
421 134 4 -3.7672805661651223 4.034558630324275 0.8246108607799988 0 -1 0
420 134 2 -4.080258991716738 4.202940774161858 0.47290987728669187 0 -1 0
422 134 4 -4.393248234614626 4.371314176922158 0.12123412477270519 0 -1 0
301 94 4 -2.261124430539547 3.5043927998918614 1.1854616856862075 0 0 -1
1116 366 2 -1.0834801843147652 4.16983344200922 0.3075300100065271 0 -1 0
1118 366 4 -1.5165683993023757 4.231867669192187 0.5496004539963926 0 -1 0
1117 366 4 -0.6503997356739143 4.107801376497904 0.06548289473741668 0 -1 0
643 208 4 -5.073113957267382 6.0795010453643314 0.3861028102042312 0 0 1
343 108 4 -3.727829703106032 6.520107208781054 0.2901355186441599 0 0 -1
721 234 4 -3.889481627710799 6.290116961248663 0.5821396485416017 0 -1 0
342 108 2 -3.6134877481291356 6.126068941726545 0.00435526341237146 0 0 -1
720 234 2 -4.180336822952984 6.316393770648324 0.9880005196140128 0 -1 0
1062 348 2 -4.259783758727767 -6.890209836930889 2.207065726963246 1 1 0
1063 348 4 -4.092398221272664 -6.52999579569966 1.9033859732702236 1 1 0
1369 450 4 -2.7579577699169824 -6.071632905528657 1.4282043629404644 0 1 1
1216 399 4 -2.73638218731679 -6.078692667272181 1.8313534811068986 0 1 0
1215 399 2 -3.052763174734645 -6.048999249590016 2.2173868318983057 0 1 0