LAMMPS data file via write_data, version 29 Aug 2024, timestep = 2000001, units = lj

1520 atoms
4 atom types
1020 bonds
1 bond types

-6.932675 6.932675 xlo xhi
-6.932675 6.932675 ylo yhi
-6.932675 6.932675 zlo zhi

Masses

1 1
2 1
3 0.5
4 0.5

Bond Coeffs # zero

1 0

Atoms # bond

344 108 4 -6.699705581305675 6.743408255466174 -6.254816712504636 1 0 0
838 273 4 -4.717782387712831 -6.758097640879507 -6.298621078553955 0 0 0
837 273 2 -5.172115562497846 -6.827663893548317 -6.495464813300707 0 0 0
839 273 4 -5.626434420967945 -6.897231024801949 -6.6923414126911736 0 0 0
806 262 4 -2.2825045395229404 -6.264946069094201 -5.898149630643112 0 1 0
1308 430 2 -0.8196883796465888 -6.875305931401421 -6.832499638317884 1 1 1
131 37 4 -5.916199981581792 -3.5666077408552823 -6.033778460755109 0 1 0
129 37 2 -5.653930519191046 -3.610228849310879 -6.45723583239399 0 1 0
130 37 4 -5.39165581684127 -3.6538262376531834 -6.880693584843154 0 1 0
108 30 2 -1.2924559969766216 -4.258517786079713 -6.25328306116676 0 0 1
110 30 4 -1.278311840770564 -4.2506759208991305 -6.753014526317054 0 0 1
632 204 4 -3.197553971038033 6.076015590516944 -0.688703365327272 0 0 1
584 188 4 -5.240237474095205 -3.127827453819602 -6.1594617152900435 0 1 1
582 188 2 -5.234747426283537 -2.6282116520809824 -6.1406139799789425 0 1 1
1003 328 4 -2.64757348739672 -3.050932010919453 -6.297226859372919 1 1 0
1002 328 2 -2.3219759304451673 -3.409289478396118 -6.172423654187768 1 1 0
1004 328 4 -1.9963900652920403 -3.767627705797251 -6.0476520922919645 1 1 0
583 188 4 -5.229277752083202 -2.128613849246058 -6.121768627744829 0 1 1
932 304 4 -6.780220931218398 6.544180938428934 -0.62019368508332 1 -1 -1
532 171 4 -3.87794530797044 -2.0299143678183005 -5.649714955076702 0 0 1
531 171 2 -4.352520188873582 -1.9546013866190375 -5.787908394521594 0 0 1
1040 340 4 -6.001836442970125 -0.5766223001594822 -6.734493219352012 1 0 1
67 16 4 -6.046219966381541 -0.9962222416623391 -6.404689502225624 1 1 0
66 16 2 -5.935610309793062 -0.7067029732120631 -6.012336352236706 1 1 0
725 235 4 -0.016154984921363635 -3.863744283353519 -0.5869784188748282 -1 -1 1
655 212 4 -3.6601110540973436 -0.05117448210496994 -6.7385520611920455 0 0 1
48 10 3 -4.8622156198009 1.3751110295965012 -0.1234500618567961 1 0 0
654 212 2 -3.6465509645406624 0.32262324193514 -6.406739463613938 0 0 1
656 212 4 -3.632974088478147 0.6964109786412259 -6.074916087638479 0 0 1
1228 403 4 -4.0117293419853945 0.9385628599983722 -6.239492445549395 0 0 1
1346 442 4 -4.467648600666026 0.5233955961050085 -6.803363702045068 1 0 0
28 6 3 -3.187914586991909 0.8652978351292265 -6.227025953119856 0 0 1
26 6 1 -2.737849416121591 0.9255184589870744 -6.322599025499576 0 0 1
30 6 3 -2.6910995643838573 1.1932298762918223 -6.688046614542606 0 0 1
29 6 3 -2.5226671532250995 1.1159228339215135 -5.958258088106055 0 0 1
27 6 3 -2.5482292201311028 0.5156190531376577 -6.409789890639252 0 0 1
935 305 4 -2.2948278056587377 0.6597784845389649 -6.016234522823175 0 0 0
324 102 2 -1.461074182634499 0.14796834927560462 -6.715936859814038 -1 0 1
326 102 4 -1.4544256409930334 0.580369162025302 -6.4649608346008565 -1 0 1
1054 345 4 -1.4282338362415425 1.0613461059641105 -6.668421266917316 0 0 1
1229 403 4 -4.6908459199898385 1.6495875118099699 -6.4217913597832945 0 0 1
1227 403 2 -4.351274624652592 1.2940771418151633 -6.330645771297609 0 0 1
1381 454 4 -3.8771297268166904 -0.014895033352486362 -0.0885252397583531 1 0 0
1445 475 4 -0.025084301361876254 -4.960163738092798 -4.392735921118547 0 0 1
950 310 4 -2.9361627973532443 1.9650248242897161 -6.629146466020634 1 1 0
1075 352 4 -3.049763227679812 1.4889440822705302 -6.911841155008128 1 0 1
948 310 2 -2.5372979705900454 2.2618884277864226 -6.576160217079238 1 1 0
949 310 4 -2.1384484784737454 2.558761852253565 -6.523177146642961 1 1 0
1169 383 4 -1.6386489558951352 2.5560106028719813 -6.263366988372766 0 0 0
86 22 4 -2.079490671977597 2.809785392268438 -6.022542347368339 0 0 0
1167 383 2 -1.3707390751439534 2.6503788941372357 -6.674870835911052 0 0 0
402 128 2 -6.211942656675362 3.7084823727261114 -6.251449929956097 1 -1 0
404 128 4 -6.385473011429593 3.782761913945566 -6.714446077404879 1 -1 0
599 193 4 -0.5394327968185646 3.7230697853352086 -0.0768137483967898 0 0 0
799 260 4 -4.613065561748708 4.124843255308634 -6.400002037347011 -1 0 1
1279 420 4 -4.868932957598827 4.412644688444077 -6.091704685798752 0 -1 0
1278 420 2 -5.2440644748327685 4.15422798863496 -5.8855313349530345 0 -1 0
798 260 2 -4.1644063225297545 3.935844896996356 -6.513883542889491 -1 0 1
800 260 4 -3.715708412824803 3.746869609260656 -6.627760904011775 -1 0 1
1113 365 2 -6.302360088639878 5.638118877367206 -6.103281080033953 0 0 0
1114 365 4 -6.26605608413945 5.539490221058883 -6.592128999039809 0 0 0
1360 447 4 -6.760839493009135 5.604018733140798 -6.709480095379294 1 0 1
1186 389 4 -4.446141805484269 5.427334961225109 -6.016067413492751 0 0 0
1309 430 4 -0.7889757367057253 6.68821539657294 -6.435058676705445 1 0 1
443 141 4 -0.8166827800010795 6.301475906778929 -6.755769872787796 0 -1 0
441 141 2 -0.5248090907366563 5.897997388797575 -6.800650278210031 0 -1 0
892 291 4 -2.5630704991925977 -6.0269047891790954 -4.684980329162736 1 1 0
610 197 4 -2.192628779078601 -6.747292590483961 -5.748511187315441 0 0 1
804 262 2 -2.0255274198634954 -6.130313277023934 -5.490913232940938 0 1 0
1138 373 4 -1.2760165250487039 -6.024401998717454 -5.175765173507581 0 0 0
1137 373 2 -0.9236367631732962 -5.990985153936483 -4.822636647891212 0 0 0
1468 483 4 -5.8367889304446345 -5.631396004975664 -4.579406604771816 0 1 1
805 262 4 -1.768530552918781 -5.995665126815113 -5.083689247773294 0 1 0
590 190 4 -4.400713400365741 -3.3324878486019824 -4.751194904449322 -1 1 0
109 30 4 -1.3066034208441797 -4.266324578661619 -5.753558597619841 0 0 1
215 65 4 -1.057613075540933 -3.5990443869991013 -4.8433830204201005 0 0 0
630 204 2 -3.2793337401100606 6.386410220554297 -0.30535531614385075 0 0 1
467 149 4 -5.583975296988744 -2.9149425028874836 -5.322896592933931 0 1 0
465 149 2 -5.235019851766191 -3.0970001265437994 -5.014554440286422 0 1 0
466 149 4 -4.886049477231468 -3.2790238706117494 -4.706194873384898 0 1 0
214 65 4 -1.7016721539293385 -3.6815972898032348 -5.6038924139785005 0 0 0
213 65 2 -1.3796397863779244 -3.64030687255506 -5.223649117368644 0 0 0
507 163 2 -2.2122444752598094 -2.339257512839342 -4.679631616519089 0 0 1
533 171 4 -4.827127943089521 -1.8792842269054764 -5.926079037605188 0 0 1
362 114 4 -3.665435870851498 -2.0279274926300843 -5.19586002418051 0 0 0
361 114 4 -3.324093375421802 -1.0895403335582932 -5.250015302167259 0 0 0
360 114 2 -3.494765555167038 -1.5587237392211313 -5.22294197115626 0 0 0
509 163 4 -1.9662842590043013 -2.212227608769769 -5.096019448655747 0 0 1
395 125 4 -1.710258667703084 -1.8381241414666711 -5.30184499811881 0 0 0
393 125 2 -1.4641564183041524 -1.4039442095349868 -5.332153386448 0 0 0
353 111 4 -0.8165890819996205 -1.2087179812159021 -5.146300536732626 -1 0 -1
1049 343 4 -3.5752597648146405 3.916062979833815 -0.07563722564485058 1 -1 0
68 16 4 -5.824992123213727 -0.4171791488937709 -5.619991770241501 1 1 0
188 56 4 -5.390035381337696 -0.21291843827942844 -5.511586024832527 0 0 0
186 56 2 -4.964727385635496 0.047004491694896317 -5.551263248045066 0 0 0
809 263 4 -3.280925702118381 -0.6221747205757926 -5.462449011604346 0 0 0
807 263 2 -3.028469500515173 -0.4303209615782899 -5.07586135886576 0 0 0
808 263 4 -2.7759967895992474 -0.2384812169470801 -4.689291963780962 0 0 0
394 125 4 -1.2180642650207858 -0.9697433208794309 -5.36244300152701 0 0 0
351 111 2 -0.3542097990500485 -1.0706501116042861 -5.015422639056086 -1 0 -1
187 56 4 -4.539429329177686 0.306892875791817 -5.5909446850981155 0 0 0
706 229 4 -4.2139181087741715 0.6550975806742401 -5.520355264791204 0 -1 0
705 229 2 -4.04210504460823 0.5779619593587261 -5.057188026663277 0 -1 0
933 305 2 -2.00264178448396 0.4792536444512215 -5.652870595630322 0 0 0
934 305 4 -1.7104346268159039 0.2987328926350978 -5.289518421341281 0 0 0
1123 368 4 -1.5171869512443188 0.6758698370922203 -5.037812343714275 0 0 0
710 230 4 -0.9309879142974303 1.0835532099730232 -5.613159522021151 0 0 1
1085 355 4 -4.6835218113000545 2.1873065434499863 -5.276589730870429 0 -1 1
708 230 2 -0.7433574739652659 1.5446189098565535 -5.566282202465252 0 0 1
709 230 4 -0.5557408628128903 2.005730570130768 -5.519405897943128 0 0 1
1083 355 2 -4.686823320425517 2.6358179305582543 -5.055569707613348 0 -1 1
1084 355 4 -4.690114150467522 3.08430245190463 -4.834522525390705 0 -1 1
287 89 4 -4.454289837841156 3.231095454325075 -5.267066294979319 0 0 0
84 22 2 -1.8198930275185372 3.1791292829751168 -5.807534441876626 0 0 0
1483 488 4 -0.1878908876509677 2.362899669244257 -5.512502062360861 0 -1 0
1482 488 2 -0.23908207707696388 2.4153787761340104 -5.0179116520442415 0 -1 0
403 128 4 -6.038435487710772 3.6341877567765133 -5.788450053821862 1 -1 0
1280 420 4 -5.619175509501699 3.895828567797917 -5.67937249876907 0 -1 0
286 89 4 -3.937882520602327 4.054448774165027 -5.031585943004462 0 0 0
285 89 2 -4.196099770605446 3.642780265309762 -5.149326135650352 0 0 0
85 22 4 -1.5602966860273249 3.548455157525105 -5.592555206303671 0 0 0
1334 438 4 -1.8818579558155257 3.549041722627466 -5.205664477019226 1 -1 1
1332 438 2 -1.9030963885279437 3.591512884279993 -4.7079087308662695 1 -1 1
1052 344 4 -6.146031632846423 5.674478853001398 -5.150507657783186 1 0 0
1050 344 2 -5.683582568999137 5.83511041704413 -5.048824003351514 1 0 0
1115 365 4 -6.338654472387956 5.736743483911632 -5.6144524479663644 0 0 0
1051 344 4 -5.221151545582315 5.995755871222756 -4.94711926951547 1 0 0
1185 389 2 -4.650018158627347 5.741867715357896 -5.685162523517975 0 0 0
1187 389 4 -4.853887313013625 6.056390879399498 -5.354216785280536 0 0 0
609 197 2 -2.4621157012255903 6.728187508028485 -5.589230503318942 0 -1 1
611 197 4 -2.7316091660831345 6.338304134670858 -5.4299493004877615 0 -1 1
1467 483 2 -6.169274553378569 -5.9987739871674535 -4.512587555383226 0 1 1
1469 483 4 -6.501763305133632 -6.3661991600239345 -4.445766212881531 0 1 1
174 52 2 -6.375633415773981 -6.860582332820927 -3.6782783305299387 0 0 0
176 52 4 -6.313477289589631 -6.7753698943141245 -4.167033493818859 0 0 0
1287 423 2 -4.9441031022358075 -5.888212427326906 -4.393458571349573 1 0 1
1288 423 4 -4.54411192795958 -6.187019843432975 -4.366658813458899 1 0 1
891 291 2 -2.4965179846762826 -6.399102759468268 -4.357820948718839 1 1 0
893 291 4 -2.430029013284091 -6.771302409120051 -4.030745850665927 1 1 0
1139 373 4 -0.5712177889070715 -5.957523569139972 -4.4695169798120595 0 0 0
1289 423 4 -5.344111660355089 -5.589395740672339 -4.420259148894885 1 0 1
229 70 4 -2.848943192997971 -4.588013216524294 -3.6806706093183266 0 0 1
697 226 4 -2.6256923311291627 -3.5058498603795405 -4.453432225923897 0 1 0
696 226 2 -2.5675461053944724 -3.9709266516297173 -4.279266183797526 0 1 0
615 199 2 -1.158089000727351 -3.538286645461968 -4.092911977146254 0 0 1
617 199 4 -1.4780587177826578 -3.691001002399149 -3.7403608265506336 0 0 1
698 226 4 -2.5093776251788853 -4.435985955645546 -4.105115061041977 0 1 0
616 199 4 -0.8381372378727394 -3.385555792812694 -4.445497932521701 0 0 1
589 190 4 -3.8347361299219447 -3.3607418868784773 -3.927257041679984 -1 1 0
588 190 2 -4.11772937818702 -3.3466131027006547 -4.339221599458311 -1 1 0
274 85 4 -3.53196233394949 -3.1340086149555253 -4.293879801468658 0 1 0
273 85 2 -3.0435942454301905 -3.0372875687173173 -4.340078793145726 0 1 0
275 85 4 -2.555219449408735 -2.94055914776416 -4.386291623504846 0 1 0
508 163 4 -2.4581768765131407 -2.4662988450935 -4.2632542690595905 0 0 1
653 211 4 -4.85586471327881 -1.3162126865489985 -4.769137707459912 0 0 0
651 211 2 -4.475468759876147 -1.1108260259200802 -4.51790692846501 0 0 0
355 112 4 -3.660530213786837 -0.7540949308691545 -4.08512546263779 0 0 1
652 211 4 -4.095090488136897 -0.9054152519922329 -4.2666912452954 0 0 0
354 112 2 -3.72653759258426 -0.2597477861682419 -4.120675074813371 0 0 1
1376 452 4 -0.15411879656935598 -0.5901653446753582 -4.6410131757423985 0 0 0
707 229 4 -3.870276273748504 0.5008433547435025 -4.594005123143655 0 -1 0
61 14 4 -3.8141095351805894 0.9707829456963497 -4.435600062908884 0 0 0
356 112 4 -3.7925462909681604 0.23461438146203312 -4.1562721523693495 0 0 1
1122 368 2 -1.4545594229351577 0.8106210701411687 -4.560401974119363 0 0 0
1124 368 4 -1.3919495704269742 0.9453746210582847 -4.083102233467001 0 0 0
60 14 2 -3.5572712235624926 1.399057299551 -4.460506393687236 0 0 0
922 301 4 -4.110240577085067 1.898443223709362 -3.4488040626705065 1 1 0
921 301 2 -3.6176371166213577 1.983362898488745 -3.4599989190244287 1 1 0
62 14 4 -3.300436717312898 1.827336799412548 -4.485376406322047 0 0 0
923 301 4 -3.125014484358632 2.068291169914847 -3.471191629052807 1 1 0
1264 415 4 -2.28661127032196 1.7170396278857256 -3.847134998943598 0 0 0
1316 432 4 -1.01467614778349 1.2783633315870868 -4.098634251581366 0 -1 0
1314 432 2 -0.7049144903560408 1.6548956824170455 -4.209332584622112 0 -1 0
1315 432 4 -0.3951051810753776 2.0314227309640205 -4.320051461007682 0 -1 0
1181 387 4 -6.795822389714668 3.194244471707482 -4.232506568175314 1 0 1
952 311 4 -6.458104930824169 3.0372174258343665 -3.8955609464882155 0 0 0
951 311 2 -6.009450555374216 3.2386338168604794 -3.985814601234593 0 0 0
320 100 4 -2.689935375198543 2.2796606906127295 -3.426677070217993 0 0 0
1484 488 4 -0.29029857673470466 2.4678635675293514 -4.523342617725917 0 -1 0
953 311 4 -5.560815067680467 3.4400098473247245 -4.076070619850048 0 0 0
396 126 2 -3.5079502063723953 4.317782451673248 -4.231241833823664 0 0 0
397 126 4 -3.7798221356010995 4.319179865852104 -4.650868527807575 0 0 0
398 126 4 -3.2360984143483087 4.316409613230748 -3.811611077530464 0 0 0
1333 438 4 -1.9243327237256163 3.6339998346777747 -4.210169107042553 1 -1 1
140 40 4 -1.9301577202399611 4.054324453121778 -3.961840728294889 0 0 0
138 40 2 -1.7323149632397212 4.450664245106641 -3.7299426087304495 0 0 0
1416 466 2 -6.816283962062847 5.670841523466164 -4.209112831673086 0 -1 1
1166 382 4 -3.167541886366028 4.8076358519599465 -3.7472148674716292 1 0 0
1164 382 2 -2.7519419667351532 4.855343039722996 -3.4733817840545624 1 0 0
302 94 4 -0.21755833618817397 5.053440287903666 -3.6848932196885054 -1 1 0
300 94 2 -0.019088541243915215 5.496595219487209 -3.80410077503648 -1 1 0
1418 466 4 -6.327124176757333 5.774049862921452 -4.218652508014577 0 -1 1
1393 458 4 -5.3822824975552725 6.178305395400101 -4.479046727038489 0 -1 1
1394 458 4 -4.99573555174802 6.667567966679156 -3.6972519160614445 0 -1 1
1392 458 2 -5.189038877619925 6.422938878253699 -4.0881383104390565 0 -1 1
515 165 4 -4.712898641541378 6.314778883692047 -3.456789799519238 1 0 0
442 141 4 -0.23296501630058436 5.494522703322796 -6.845544453109402 0 -1 0
1435 472 4 -6.693366676379043 -6.616484581026824 -2.810904187662984 1 0 0
175 52 4 -6.437773546283507 6.919546128740419 -3.1896029189366417 0 -1 0
769 250 4 -4.368543994858596 -6.84694046739955 -2.380826187025896 0 1 1
310 97 4 -2.086280943403794 -6.575272553034682 -3.7378724565605275 0 -1 0
58 13 4 -3.3951244051380627 -5.864064255290388 -2.39382779178062 0 1 0
309 97 2 -1.9400659644133829 -6.451997336813515 -3.2758963381830966 0 -1 0
311 97 4 -1.7938365091674602 -6.328742261759593 -2.8139011734764323 0 -1 0
122 34 4 -6.0048597979203 -4.743702537336742 -2.465038730103268 0 0 0
1499 493 4 -3.633788668665653 -4.673275663848551 -2.961321025059646 1 0 0
57 13 2 -3.2909075811790305 -5.428650066520896 -2.6164610297939506 0 1 0
59 13 4 -3.1866943406935806 -4.9932413871538825 -2.8390988915432542 0 1 0
266 82 4 -1.4940622734799198 -5.9263462451363695 -2.800482195875048 0 1 0
264 82 2 -1.0291356160771228 -5.7821138153349665 -2.6862705184252094 0 1 0
265 82 4 -0.5642107880653191 -5.637899075284702 -2.572054849612402 0 1 0
571 184 4 -0.10901511494817386 -5.443891007003441 -2.482020712955585 0 0 1
121 34 4 -6.872097164509863 -4.310970171853919 -2.7115528276402254 0 0 0
120 34 2 -6.438451167194828 -4.527337022741333 -2.5883071730615974 0 0 0
1498 493 4 -4.5543900682139915 -4.284760660846573 -2.9214313325270247 1 0 0
1497 493 2 -4.094088042390747 -4.479025274496815 -2.941377334976337 1 0 0
228 70 2 -3.009639990012141 -4.51298928157034 -3.213149486542323 0 0 1
230 70 4 -3.1703467432119847 -4.437961636847452 -2.745685731554255 0 0 1
956 312 4 -0.12067801907123077 -3.6670159940583953 -2.502798090237979 1 0 0
490 157 4 -0.5968852771466172 -3.5463494992400704 -2.6160854235606203 1 0 1
489 157 2 -0.7733762079641098 -3.0837601701849047 -2.5463002677309023 1 0 1
421 134 4 -0.0021290191432160243 -1.9863628577653958 -2.769862180361032 -1 -1 0
930 304 2 -6.712700013616015 6.642756420381753 -0.13470341026802476 1 -1 -1
739 240 4 -5.455733530922031 -1.8240326879267448 -2.9531812494539604 0 0 0
738 240 2 -5.596306487226604 -2.1126240391366573 -2.5698382350387323 0 0 0
782 254 4 -0.5504615421428061 -2.201813879612484 -2.6715623613402797 0 0 0
780 254 2 -0.8412293597384671 -1.8540240692605598 -2.4606249982215824 0 0 0
867 283 2 -6.913786348843408 0.08723009383522257 -2.9768747797872788 1 0 0
39 8 3 -1.765855691221406 0.009702921473058687 -3.2851367061149688 0 0 0
868 283 4 -6.486059249274799 0.216664985449498 -3.2011101281556145 1 0 0
946 309 4 -6.060863929300272 0.4130742653599008 -3.22602199043064 0 0 0
945 309 2 -5.9662890338920835 0.810542027148664 -2.9377121144970437 0 0 0
37 8 3 -1.5781590653860458 0.734815578463469 -3.3474498076515173 0 0 0
40 8 3 -1.6047252854658725 0.4170027651113485 -2.672696543999222 0 0 0
38 8 3 -2.243023324024134 0.5518466427617462 -3.048584946867889 0 0 0
36 8 1 -1.797599986927402 0.42720948732565683 -3.0851558294402133 0 0 0
1265 415 4 -2.013068274979488 0.98445971246256 -3.2238231289155634 0 0 0
947 309 4 -5.871686581840531 1.2079524054487403 -2.649439313447833 0 0 0
1263 415 2 -2.1498476927953 1.3507502192228942 -3.5354989312976595 0 0 0
318 100 2 -2.6741764233960743 2.6477126311601236 -3.0886156119687183 0 0 0
319 100 4 -2.658403785485748 3.0157706146211347 -2.750552255682533 0 0 0
1383 455 2 -0.4257075859069123 3.630694904325183 -3.4401394553085907 0 -1 1
1384 455 4 -0.2808679488518697 3.2280044225200175 -3.698712018994593 0 -1 1
686 222 4 -2.779233011055981 3.474586369385304 -2.5870655078046916 0 -1 0
363 115 2 -1.627892468280649 4.455493909350375 -2.5739386237927113 0 0 0
1385 455 4 -0.5705480622697886 4.03338788170142 -3.1815505327677402 0 -1 1
919 300 4 -0.2807951498514875 4.310490563411172 -2.861210861947161 0 -1 0
392 124 4 -5.3334818751786734 5.457101613549031 -2.1729236542685304 0 0 0
390 124 2 -5.594134981446313 5.252219613837848 -2.5471957096574007 0 0 0
391 124 4 -5.854787780394241 5.047327719492744 -2.9214663574680584 0 0 0
1165 382 4 -2.336319580077724 4.903055601252945 -3.199556031916045 1 0 0
139 40 4 -1.5344663763568616 4.847008961975404 -3.4980639216145843 0 0 0
364 115 4 -1.659490002535271 4.676139938018658 -3.021505520623681 0 0 0
920 300 4 -0.49014599766895434 5.185430865889765 -3.2978759224262038 0 -1 0
918 300 2 -0.3854748382450181 4.747963960884116 -3.079547645711871 0 -1 0
305 95 4 -6.468904023815911 6.755436937791128 -2.651765075570516 0 0 0
303 95 2 -6.168286890015244 6.361807109150603 -2.5833412939893416 0 0 0
304 95 4 -5.867675277053648 5.968171832327275 -2.5148933908964497 0 0 0
514 165 4 -4.222845429682379 6.916590263727054 -2.826183865921758 1 0 0
513 165 2 -4.467881882641433 6.615683374616966 -3.141484080151118 1 0 0
1070 350 4 -2.0046695854296717 6.252273814850863 -2.3943890767630363 0 -1 0
721 234 4 -5.52015322450975 -6.255324381359677 -1.0675146843943826 0 0 0
722 234 4 -5.327851153526312 -5.911188008411887 -1.9865151290462018 0 0 0
720 234 2 -5.424018627168949 -6.083260577247409 -1.5270249037793728 0 0 0
768 250 2 -3.9602735455962086 -6.569902309313497 -2.2998777025811097 0 1 1
770 250 4 -3.551995209983761 -6.292859764446214 -2.218917335495221 0 1 1
378 120 2 -3.046834419646965 -6.882767518234266 -1.6006306336552263 0 1 0
89 23 4 -2.442129886188488 -6.212467983072834 -1.1133024123577575 0 0 0
379 120 4 -2.75669686473014 -6.592284110938714 -1.315270305710919 0 1 0
473 151 4 -0.6221809488960351 -6.530271984648109 -1.014333744479919 0 1 0
145 42 4 -6.7040207895692605 -5.390309915252239 -1.026269430427429 0 1 -1
576 186 2 -1.3594354967405213 1.1806713166578477 -0.06494949572996803 0 0 1
430 137 4 -3.5666503411064103 5.8191669475788075 -0.9280042659594875 0 0 1
954 312 2 -0.1012837471779272 -3.96827180215374 -2.1042220205565725 1 0 0
955 312 4 -0.0818562913629133 -4.269508907036813 -1.7056324071064244 1 0 0
152 44 4 -6.831980485019218 -3.748824891595825 -1.282948186889791 1 0 0
740 240 4 -5.736872822279045 -2.4012376304201157 -2.186494765805843 0 0 0
873 285 2 -5.054593804701565 -2.6078207504906104 -1.606848281179328 1 2 0
875 285 4 -5.516579952834944 -2.6022667600925664 -1.7979553989678707 1 2 0
874 285 4 -4.592599457649367 -2.613370906907794 -1.4157087797496195 1 2 0
491 157 4 -0.9498458488666651 -2.6211641373524803 -2.4765453506730872 1 0 1
1041 341 2 -6.7378399861145635 -2.0579107193560273 -1.975721439225949 1 -1 0
1042 341 4 -6.425962386650232 -1.693437398193158 -1.8346489254275116 1 -1 0
134 38 4 -6.300866547489932 -1.7450350017835312 -1.3495273858054027 0 1 0
132 38 2 -6.5642707323889615 -1.4692884270613895 -1.0261216438456828 0 1 0
1477 486 4 -2.5321819836522903 -1.329882288049032 -2.0407979065003463 0 1 1
1476 486 2 -2.0343926232353238 -1.290250468297491 -2.066473964557892 0 1 1
1478 486 4 -1.5366406427552086 -1.25059644827514 -2.0921031700139383 0 1 1
781 254 4 -1.1320189763461912 -1.5062610095559235 -2.2496750126377996 0 0 0
231 71 2 -4.919084834450911 -0.2127731276795978 -1.2115098199236654 0 0 0
232 71 4 -5.252252644409069 -0.08470874034725413 -1.5616664270758305 0 0 0
291 91 2 -2.9130771179218042 -0.9321885303008451 -1.398546127024379 -1 0 0
293 91 4 -2.743100282700423 -0.9180576648510225 -1.8685547477022932 -1 0 0
1516 499 4 -1.6877323698532987 -1.0050555136331514 -1.3226084496171646 0 0 0
937 306 4 -5.662513836012394 0.20209617946296785 -1.5024482058565274 0 0 0
936 306 2 -5.883143668830692 0.4508941373605206 -1.1290512056871052 0 0 0
1463 481 4 -3.273810316424272 0.3845901286452457 -1.2225755895654296 1 0 1
1461 481 2 -2.997057425425405 0.6524447414540904 -1.541432755295169 1 0 1
1462 481 4 -2.7203110577599654 0.9203107352242206 -1.860281340487126 1 0 1
1453 478 4 -2.3220250239630262 0.7170851183179756 -2.062344082612151 1 -1 0
1452 478 2 -1.9848693045381387 1.021047018503189 -1.8527049813431211 1 -1 0
1454 478 4 -1.6477326069245435 1.3249991842698603 -1.6430756860882367 1 -1 0
548 176 4 -5.109777720703621 1.9333959086436854 -1.6784863077541308 0 0 1
1153 378 4 -1.199761352160869 1.5342066068925764 -1.5262521409310132 0 0 0
598 193 4 -1.519108073434575 3.6779200477930285 -0.27235185813914425 0 0 0
546 176 2 -4.920559675392248 2.3692498741001238 -1.8341317703443627 0 0 1
1355 445 4 -5.044521984318496 3.088326675887083 -1.7292129017158002 1 0 0
547 176 4 -4.73135838079334 2.8051463901204174 -1.9897595531476415 0 0 1
684 222 2 -2.950176833918192 3.305555320533742 -2.1486609798520724 0 -1 0
685 222 4 -3.121128626772159 3.1364970209944802 -1.7102440780149593 0 -1 0
1090 357 4 -5.924227476241874 4.060427261677113 -1.6542882106025085 0 0 0
1354 445 4 -5.7763392306843455 3.7096703217883262 -2.0091050488043125 1 0 0
1089 357 2 -6.362518038399066 4.0966228070172646 -1.4163711343262335 0 0 0
1353 445 2 -5.4104241039763 3.3989897564432185 -1.8691509218727205 1 0 0
835 272 4 -4.023981181428189 4.77324222039533 -1.8474919177825768 0 -1 0
834 272 2 -3.6125020418163856 4.520104476920904 -1.7186173505169595 0 -1 0
112 31 4 -4.347477040640307 4.437998589370903 -2.030710046464539 0 -1 0
836 272 4 -3.201015944249815 4.266979090452693 -1.5897311731909485 0 -1 0
185 55 4 -3.3949090778018447 3.9556746613022216 -1.3571504817042706 0 1 0
365 115 4 -1.5963152985321651 4.234862399460026 -2.126379161088996 0 0 0
602 194 4 -1.9362387633611353 4.411183395138069 -1.7959871416123179 0 0 0
600 194 2 -1.908370706202457 4.703392361393764 -1.3912057112670455 0 0 0
1018 333 4 -6.399439283446596 5.6965290136467415 -1.2616443801618016 1 0 0
113 31 4 -4.9927889200990085 5.120212767906255 -2.374456868798147 0 -1 0
111 31 2 -4.670124928222254 4.77909955966659 -2.2025992344937557 0 -1 0
1019 333 4 -5.773053866118073 5.850491041581394 -2.0257800697124226 1 0 0
1017 333 2 -6.086256134303942 5.773514194003972 -1.643711034383522 1 0 0
429 137 2 -3.6526683652427168 6.142483661408626 -1.2995719355297934 0 0 1
431 137 4 -3.738692132728317 6.465806587579406 -1.6711763451099784 0 0 1
380 120 4 -3.3369425611156314 6.6920897627693545 -1.8860080258958278 0 0 0
1068 350 2 -1.6030285365216574 6.406411982776922 -2.139622521101238 0 -1 0
1069 350 4 -1.2013652952983158 6.5605633072115985 -1.8848434804522989 0 -1 0
146 42 4 -5.815963989157682 -5.8267046133047025 -1.1710506794478033 0 1 -1
1472 484 4 -6.685254990267109 1.0089495006305906 -4.0417280606312955 1 0 1
471 151 2 -0.2910886278119738 -6.239744619678195 -0.7777635115366064 0 1 0
277 86 4 -0.12527675266239446 -6.045314353848772 -0.07349635142542088 -1 1 0
144 42 2 -6.259991070554698 -5.608518221468207 -1.0986587867383406 0 1 -1
295 92 4 -6.718156517456499 -4.914218252835627 -1.309755260937565 0 1 0
87 23 2 -2.5979911949047563 -5.738589213376057 -1.1471563924876653 0 0 0
88 23 4 -2.7538943048606663 -5.264702174302176 -1.1809948589102373 0 0 0
1189 390 4 -2.0702751079165953 -5.431699166199581 -0.20563195081317415 0 1 0
294 92 2 -6.558952365997308 -4.4424533497652625 -1.3554977233466547 0 1 0
296 92 4 -6.399755159525609 -3.9706588590170475 -1.4012006023164427 0 1 0
196 59 4 -3.463594479268783 -3.034027860900682 -0.1880883278622165 0 -1 0
195 59 2 -2.9998526505367766 -2.8521383765288624 -0.23135606653155746 0 -1 0
197 59 4 -2.536129640198595 -2.6702496337378276 -0.2746218311038202 0 -1 0
601 194 4 -1.8804626398870927 4.995604119788605 -0.9864412235428045 0 0 0
1304 428 4 -6.884029227633228 -1.548650609745313 -0.3593551957003587 1 0 1
133 38 4 -6.827690048558667 -1.1935513143077319 -0.7027449962596833 0 1 0
415 132 4 -3.118642745010382 -2.1709692238742426 -0.23167735135552628 -1 0 0
414 132 2 -3.1922914324063356 -1.7895280542925793 -0.5464282536334171 -1 0 0
416 132 4 -3.2659293640116416 -1.408046694805216 -0.8611666865263881 -1 0 0
233 71 4 -4.5859565053152105 -0.34083245230622455 -0.861382368562354 0 0 0
1382 454 4 -4.173657501597348 -0.17000777025829694 -1.030878399582374 1 0 0
1380 454 2 -4.02539635125359 -0.09245809032064715 -0.559711980817194 1 0 0
292 91 4 -3.0830832504760797 -0.9463290712970668 -0.9285186154969737 -1 0 0
1517 499 4 -1.2493168327255284 -1.1415992750685142 -0.43426039987612897 0 0 0
1515 499 2 -1.4685313379437688 -1.0733411846106267 -0.8784308930347048 0 0 0
173 51 4 -6.028782663264162 0.7391834807404983 -0.26190787229709406 0 0 -1
938 306 4 -6.1037697737574925 0.6996890850855252 -0.7556476278384152 0 0 0
171 51 2 -5.7002168711241765 1.1156002212303444 -0.24310013941812128 0 0 -1
619 200 4 -4.041540221321668 0.41657886064442834 -0.03757400994895516 1 -1 0
1296 426 2 -0.05356477607317345 0.5549688891823638 -0.2901472854224981 0 0 0
1297 426 4 -0.2946216595810433 0.6751416261822549 -0.7114034148258139 0 0 0
50 10 3 -5.265274334970067 1.9193041260723733 -0.4525459529843997 1 0 0
172 51 4 -5.371640811115543 1.4920115930592555 -0.22425905238692231 0 0 -1
46 10 1 -4.854957877673293 1.8085649818635248 -0.288878738516093 1 0 0
47 10 3 -4.544948321039564 1.8331944583774855 -0.6278068204988119 1 0 0
1152 378 2 -1.4338048523956792 1.5934215829190974 -1.0883923599771488 0 0 0
1154 378 4 -1.6678549272694032 1.6526906760499371 -0.6505270169084924 0 0 0
577 186 4 -1.5570471584269763 1.1934878858545224 -0.5240524946777654 0 0 1
313 98 4 -6.319163161913542 2.866955839002226 -0.14152950993807115 0 0 0
1252 411 4 -2.767896232850946 1.9551431199102443 -0.9227186271247698 0 0 0
1253 411 4 -3.3363586195391965 2.3814948618422527 -0.21907919484947902 0 0 0
1251 411 2 -3.0521343486581096 2.1683027143690503 -0.5709017079352281 0 0 0
376 119 4 -2.7752078641774047 3.92189663880137 -0.19643403827244843 -1 0 -1
1091 357 4 -6.800793596792812 4.132820116612668 -1.1784583368290964 0 0 0
184 55 4 -3.2387467739710942 3.703929161077921 -0.4020270424021912 0 1 0
183 55 2 -3.316835809187941 3.8298023077025074 -0.8795907356694201 0 1 0
375 119 2 -2.2855154895562793 4.006979114380348 -0.14180564171183727 -1 0 -1
597 193 2 -1.0292691746738947 3.7005039669743187 -0.17457761206244046 0 0 0
377 119 4 -1.795820228544135 4.092048974666419 -0.08718969648166083 -1 0 -1
261 81 2 -5.552880607402952 -5.72996810801984 0.5946847832626125 0 0 -1
262 81 4 -5.384659130333908 -6.11067672667608 0.3176049584486818 0 0 -1
1508 496 4 -3.5312269835480428 -6.879479421482569 0.5305838422438391 0 1 0
1410 464 2 -3.4882515749295178 -6.114152683496805 0.029114848282860133 1 1 0
895 292 4 -3.002830042877558 -6.824160221582829 0.3433699552367666 1 0 0
894 292 2 -2.715670254409322 6.774573208015316 0.6539883622169395 1 -1 0
1222 401 4 -0.31168595550981815 -6.274068615593098 0.849397847665034 0 0 1
981 321 2 -2.13400008049882 5.681319379190148 6.260810431005638 0 0 -1
276 86 2 -0.013608159548088705 -6.032423562247401 0.41370539917356036 -1 1 0
263 81 4 -5.721086151134547 -5.3492965421215946 0.8717982391957917 0 0 -1
744 242 2 -3.7572726014710907 -5.076110074039127 0.5924422261110635 0 0 0
1412 464 4 -3.544618120275018 -5.617614310840176 0.01302223443049466 1 1 0
746 242 4 -4.136899081779636 -4.852235613439828 0.828602263318957 0 0 0
745 242 4 -3.3776238215481786 -5.29994882954701 0.35628946363285474 0 0 0
1190 390 4 -1.877711722905139 -5.769816918878318 0.7155542033977721 0 1 0
676 219 4 -1.565365482638731 -5.412656542832017 0.889303631031935 0 0 0
1188 390 2 -1.9739984015894476 -5.600770623338973 0.25494600301616244 0 1 0
1131 371 2 -6.275481669039096 -3.9139950924092126 0.7940274821070149 1 0 -1
1133 371 4 -6.697999723548728 -4.0114884709911305 0.5450664291885008 1 0 -1