LAMMPS data file via write_data, version 29 Aug 2024, timestep = 2000001, units = lj

1520 atoms
4 atom types
1020 bonds
1 bond types

-6.932675 6.932675 xlo xhi
-6.932675 6.932675 ylo yhi
-6.932675 6.932675 zlo zhi

Masses

1 1
2 1
3 0.5
4 0.5

Bond Coeffs # zero

1 0

Atoms # bond

654 212 2 -1.050957122671482 -6.517333804826673 -6.258044433886623 0 0 1
656 212 4 -0.6566398741445426 -6.668171201727847 -6.525888248300232 0 0 1
655 212 4 -1.4452781911921113 -6.366500261929276 -5.990170742475945 0 0 1
366 116 2 -3.1813980635665917 4.818427438863587 -0.8209908040026157 -1 -1 0
54 12 2 -2.6745602958125954 -5.140103708506105 -6.5105605525659875 0 2 0
56 12 4 -2.4347893875252717 -5.51864794175381 -6.288657815819503 0 2 0
882 288 2 -0.9590655370987108 -4.673842473693427 -6.265980593990292 0 0 0
884 288 4 -0.6049686876117885 -4.9952386089465755 -6.412006077161189 0 0 0
55 12 4 -2.914283008494306 -4.761570947196542 -6.732453708825888 0 2 0
883 288 4 -1.313160777513071 -4.352461472172578 -6.1199782521067965 0 0 0
880 287 4 -5.480027494551101 -3.549156981140986 -5.90462860612753 0 0 0
239 73 4 -1.800176996829409 -2.3721651813087288 -6.3319384811463 0 1 0
561 181 2 -1.103781404748297 -2.770086156416074 -6.915711936622947 0 1 0
562 181 4 -1.5015576230904817 -2.636904000229846 -6.6436049583181545 0 1 0
301 94 4 -6.93123738698337 -1.197326750243326 -1.44805088806494 1 1 0
237 73 2 -2.0895342490476376 -2.1090815208898426 -6.643524629924082 0 1 0
996 326 2 -0.1729837906700475 -1.5502562321294906 -5.64792121676086 0 0 1
300 94 2 -6.6751393313673315 -0.786745455995117 -1.3222198179352862 1 1 0
669 217 2 -6.036488019415125 -0.9366243387396229 -6.82723375577098 -1 0 1
715 232 4 -5.63781267291942 -0.20098751352967642 -6.312384389850981 1 -1 0
670 217 4 -5.859862574327761 -0.5990413544465976 -6.503416575540802 -1 0 1
1025 335 4 -3.558668570819786 0.47919815921868164 -6.0863421401943425 1 1 0
1023 335 2 -3.469080043106956 0.1485817184080188 -6.450590258564838 1 1 0
1024 335 4 -3.3794818889363407 -0.18205295168841507 -6.814823471503583 1 1 0
308 96 4 -0.28309496238202264 -0.74830288302332 -6.088963752777 -1 0 0
547 176 4 -0.5028787140477854 -0.8859619239966564 -6.525873381036002 0 -1 1
306 96 2 -0.4361420098562879 -0.27797627323305807 -6.015794417130143 -1 0 0
546 176 2 -0.7850289057584325 -0.9852368175692142 -6.926554411372659 0 -1 1
998 326 4 -0.32114850553998564 -1.0734391208014726 -5.674704993827633 0 0 1
714 232 2 -5.819776173979428 0.2607885314069115 -6.372925667436892 1 -1 0
1060 347 4 -6.402647259229274 0.908146547967267 -6.184190156314351 1 0 1
716 232 4 -6.001745458099372 0.722535685861928 -6.433419239672172 1 -1 0
573 185 2 -5.134310451746939 1.1742030903249034 -6.063404138194196 0 1 1
1348 443 4 -1.6045959165965742 0.7990782369532801 -6.6617538720454315 1 1 0
475 152 4 -1.34199362853437 0.9733298922491569 -6.266719152271929 0 -2 0
307 96 4 -0.589252337737343 0.19233757119420003 -5.942604437169397 -1 0 0
574 185 4 -5.032071489879527 1.139981205500229 -6.551654681281128 0 1 1
474 152 2 -1.0382527219499211 1.0838417661561044 -5.88525409136462 0 -2 0
576 186 2 -3.3381467227749306 6.243890042290297 -0.3408049012656582 0 -2 1
645 209 2 -2.45575142243157 4.246450756148041 -6.608172075090183 -1 -1 2
647 209 4 -2.716413287545019 3.9116897843695204 -6.343638986202037 -1 -1 2
778 253 4 -0.21182740574649087 4.120900368342325 -6.581477338531283 1 -2 1
1446 476 2 -5.913848883826978 4.70624317877357 -6.599746934791974 1 -1 1
1448 476 4 -5.660207305350997 4.746116495075951 -6.170696361235698 1 -1 1
469 150 4 -5.494648915551547 5.024874452302027 -5.768817901153242 -1 1 1
946 309 4 -4.133488327505697 4.74971828220867 -6.061691728653341 0 -1 0
945 309 2 -4.252600969334761 5.220537886560281 -5.942661430888398 0 -1 0
918 300 2 -3.2844709676321235 4.698084085629523 -5.897685173837904 0 0 -2
919 300 4 -3.657807145512068 4.870956376653853 -6.181823054064184 0 0 -2
646 209 4 -2.19507357282095 4.5811977182808565 -6.872715184694952 -1 -1 2
507 163 2 -1.604437197308987 4.75532232566675 -6.233063851977402 0 -1 2
509 163 4 -1.9195350466348233 4.470125008573946 -6.496406043522411 0 -1 2
508 163 4 -1.2893162535629326 5.04055549688006 -5.96968858285055 0 -1 2
1246 409 4 -0.7062758920412198 5.90286864362185 -0.8376418476532194 1 0 -1
198 60 2 -0.2844132229863843 5.376355815542545 -6.883102443408716 0 -1 -1
436 139 4 -3.421264821629699 6.3881546736770956 -6.737696052468479 -1 -1 0
1115 365 4 -6.828967961378977 3.0995888987448192 -4.2507296814473055 2 0 1
1091 357 4 -3.180130388084944 6.091368764112918 -6.403063565123775 0 0 0
1089 357 2 -2.778734727995213 5.8394753504600505 -6.243512427877616 0 0 0
1090 357 4 -2.3773609426521767 5.587587910259373 -6.083988038105795 0 0 0
1277 419 4 -3.6407380746831812 -6.269814540857648 -5.291856293001124 0 0 0
1275 419 2 -3.7906068740587866 -6.580622989511471 -4.930029697128024 0 0 0
390 124 2 -1.3538329202293506 -6.132333736681285 -5.044351425964846 0 0 0
392 124 4 -1.4319477257601663 -6.275727433340568 -5.516916646433891 0 0 0
1100 360 4 -5.910340699563453 -4.872711312314717 -4.758970349907365 0 0 -1
1076 352 4 -4.576259788025601 -4.737179761012712 -5.557504230597467 1 2 0
710 230 4 -0.24949451803111353 -5.106252800473875 -4.9658629831398615 -1 2 2
708 230 2 -0.2892674691392927 -4.772980392623795 -5.33647719388303 -1 2 2
881 287 4 -5.503122682184888 -3.374135118687223 -4.9203365266271755 0 0 0
879 287 2 -5.491569363497618 -3.4616531957107433 -5.412489902473902 0 0 0
277 86 4 -5.3821943498244185 -3.7363329237049947 -4.624922410183933 1 0 1
1075 352 4 -4.089561338304673 -4.02679205320371 -5.049131274198076 1 2 0
1074 352 2 -4.3329066425215155 -4.381977551944503 -5.303323167503015 1 2 0
1242 408 2 -5.533446168093656 -0.7843922235789541 -4.642259674384878 0 0 0
1243 408 4 -5.374792951648096 -1.0781698847396106 -5.014495772080358 0 0 0
21 5 1 -3.7633263131655013 -0.7450408582202287 -5.1866534703199205 0 0 0
24 5 3 -3.9582959183286466 -1.0202110034289558 -4.8679732418530675 0 0 0
25 5 3 -3.3948342525462296 -0.9471762702925196 -5.361997381682648 0 0 0
23 5 3 -3.6451518176556763 -0.33942014913882784 -4.994740731600466 0 0 0
22 5 3 -4.067896681126702 -0.6675116578359714 -5.522546957752902 0 0 0
1387 456 4 -3.232369720359685 -0.4412790315085326 -4.668763840104277 0 -2 1
1379 453 4 -6.8438588723423885 0.2941897871101939 -4.609020289947374 0 0 1
575 185 4 -5.2365349948732876 1.2084282521066316 -5.575160655801772 0 1 1
627 203 2 -4.168447138237622 0.8276959739137197 -5.576726180217294 -2 1 0
628 203 4 -4.0135208969625165 0.4769860347525852 -5.89766718458408 -2 1 0
629 203 4 -4.323361044791083 1.1784082823637014 -5.25581246496 -2 1 0
1386 456 2 -2.9852390902458295 -0.025419089893523632 -4.542320548877814 0 -2 1
1388 456 4 -2.738089116339732 0.3904337670703568 -4.415895811973122 0 -2 1
1048 343 4 -2.9397967001275656 0.815502637071155 -4.5917986264730075 0 0 -1
551 177 4 -4.411843542132258 1.578768386025664 -5.019543767659685 0 1 2
549 177 2 -4.027650950234798 1.8962759127173856 -4.9799658217540514 0 1 2
550 177 4 -3.6434512416679206 2.213824262526287 -4.940387156376317 0 1 2
476 152 4 -0.7344996696800452 1.194366707936857 -5.503781248921881 0 -2 0
145 42 4 -1.8121606178799132 3.266488492656101 -5.272879919711216 0 -1 1
468 150 2 -5.435871228146862 4.539642717112437 -5.663375272330693 -1 1 1
470 150 4 -5.3771150014693765 4.0544275867196555 -5.5579509573668275 -1 1 1
256 79 4 -4.904651042211602 4.183124665511234 -5.573382837497946 0 0 1
257 79 4 -4.014108068738891 3.843864964561284 -5.270383119372841 0 0 1
255 79 2 -4.459371450494884 4.013505093615882 -5.421883617528139 0 0 1
920 300 4 -2.911166725419481 4.525226414964472 -5.613496005549587 0 0 -2
144 42 2 -1.8229467344735208 3.505802098011793 -4.83398897685999 0 -1 1
638 206 4 -1.963672385286092 4.184010775312203 -4.217467139060631 0 0 2
146 42 4 -1.8337025857017055 3.745124256259746 -4.395114842388229 0 -1 1
947 309 4 -4.371697707075601 5.691338739153494 -5.823653924582768 0 -1 0
695 225 4 -3.633222424596287 5.112172790496644 -4.425896557536788 1 -1 0
1305 429 2 -0.2504145143069493 5.2561099771486965 -5.828796678941504 0 1 1
1306 429 4 -0.3550177123478693 4.991040182573412 -5.417955482792055 0 1 1
326 102 4 -6.523636924187896 5.918721222874208 -4.9710440465677275 1 2 0
350 110 4 -6.071494519557116 -5.989916532656736 -3.992134198662038 1 1 -1
348 110 2 -5.855614118978188 -6.4120380188368635 -3.833316310122134 1 1 -1
1276 419 4 -3.940473860732081 -6.891467852751992 -4.568197934212677 0 0 0
1507 496 4 -2.8792895537978427 -6.019251032002268 -3.7138114864503886 0 1 1
1506 496 2 -3.1181535074838886 -6.456127163794052 -3.759682837639403 0 1 1
1508 496 4 -3.356991597838787 -6.892980793429357 -3.805546213888246 0 1 1
1195 392 4 -2.3934057943049702 -6.246092006488172 -3.9513654772179216 -1 3 1
391 124 4 -1.275726398827705 -5.988930210936335 -4.571786693322387 0 0 0
1194 392 2 -1.9183574863801829 -6.287807357169325 -4.1017167003282164 -1 3 1
1196 392 4 -1.4433282543348855 -6.329498732812908 -4.252083709623711 -1 3 1
1414 465 4 -1.384042511696724 -6.808206238655471 -4.112408883375543 1 0 0
1098 360 2 -6.102245698283113 -5.271963368184643 -4.527083105940289 0 0 -1
1099 360 4 -6.294126288355967 -5.671217091737239 -4.295176064544415 0 0 -1
278 86 4 -5.632135370757921 -4.679513882031386 -4.406035345041641 1 0 1
557 179 4 -3.905414366552902 -5.159789833721921 -4.149006436834631 0 1 1
555 179 2 -4.06824070430845 -5.160679138198028 -3.6762635233058583 0 1 1
276 86 2 -5.507158253292672 -4.207926321598991 -4.5154867666651715 1 0 1
1212 398 2 -4.825584507907786 -4.03366718242965 -3.5897401068091437 0 0 0
1213 398 4 -4.886547194515088 -3.6993920404551774 -3.956525963849646 0 0 0
966 316 2 -1.0533410121930542 -4.453427965168208 -3.8461329623063385 0 1 0
967 316 4 -0.8926183024224013 -4.7164363510602705 -4.239834665757004 0 1 0
333 105 2 -2.640386469914206 -2.3350421411994025 -3.775205645373596 -1 2 -1
335 105 4 -2.360253809312751 -2.600633497077987 -4.0930130600970775 -1 2 -1
334 105 4 -2.9205016825745695 -2.06944534279673 -3.4573973830765077 -1 2 -1
1244 408 4 -5.69207121717572 -0.49061546074549384 -4.270063198428075 0 0 0
1157 379 4 -5.996031153505431 -0.37141461303805146 -3.835826753289703 1 0 -1
1143 375 2 -0.40007518438622736 -0.03986835806981912 -4.038853745868305 0 0 0
1145 375 4 -0.302681459339821 -0.34852664962401547 -4.419966129204029 0 0 0
1155 379 2 -5.610097663017039 -0.06617464662282042 -3.7470757671886874 1 0 -1
327 103 2 -4.384046363605537 0.7505185680051496 -3.6392538334996845 1 0 1
328 103 4 -3.960184310877291 1.0153850791747376 -3.6257645808738275 1 0 1
1144 375 4 -0.49748570297256717 0.26878790594531954 -3.657742112665477 0 0 0
124 35 4 -0.873834278731339 0.4140625793988832 -3.377859926378164 0 0 1
1047 343 2 -2.9649926144730094 1.2672957491859953 -4.379083953168114 0 0 -1
1049 343 4 -2.9901523841734203 1.7190693669107175 -4.166348836403766 0 0 -1
340 107 4 -2.8747390316793533 2.1573458145000437 -3.980967213854825 -1 0 -1
951 311 2 -1.2199284349747328 2.218615754655623 -3.992439147026403 1 0 0
952 311 4 -1.4016628754954648 2.346002836458298 -3.5443974846361073 1 0 0
341 107 4 -3.6882667043532957 2.4368780622318638 -4.490911398040092 -1 0 -1
339 107 2 -3.281499300870908 2.297107859482207 -4.235939415233289 -1 0 -1
953 311 4 -1.0381546946824212 2.091223344998984 -4.44049548746227 1 0 0
787 256 4 -0.13136518162545988 3.4806922318586153 -3.462073397865724 -1 -1 -1
1113 365 2 -6.532242996660551 3.3892579204424487 -3.9713573286580575 2 0 1
1172 384 4 -4.474038051608923 4.677718009922306 -3.5237189987940614 0 1 0
240 74 2 -5.995037016572587 5.280003138397045 -3.2582931854781814 1 0 -1
241 74 4 -6.2039365229636 5.409910677828903 -2.822990280093043 1 0 -1
242 74 4 -5.786104482154034 5.150099556178539 -3.69358666574525 1 0 -1
693 225 2 -3.81272239201765 4.82541637645756 -4.057690250118245 1 -1 0
694 225 4 -3.992230262033302 4.538704727482324 -3.6894984080826405 1 -1 0
636 206 2 -1.6415773340458633 4.564573246570062 -4.255026258087846 0 0 2
637 206 4 -1.3194658771068741 4.945183476866895 -4.292581283391088 0 0 2
1207 396 4 -1.4838278419155169 5.342346642434011 -4.025988344473392 -2 0 0
1206 396 2 -1.7441200032044588 5.625934486964355 -3.7068757961213814 -2 0 0
324 102 2 -6.263288640270386 6.2020582146754135 -4.651755477634588 1 2 0
325 102 4 -6.002961063032873 6.485402695228383 -4.332468894603589 1 2 0
1133 371 4 -4.089168392860931 6.51511248552579 -4.468985916831757 -1 -1 1
1131 371 2 -3.644459914739657 6.475331993956126 -4.2439173117993585 -1 -1 1
1132 371 4 -3.1997488756524723 6.43555951819374 -4.018799760481615 -1 -1 1
1413 465 2 -1.0407323922465261 6.801512857421157 -3.8539498362326556 1 -1 0
1415 465 4 -0.6974182399352564 6.545889841002519 -3.5954957570311157 1 -1 0
832 271 4 -0.17674250241213943 6.606594534992598 -3.469339758056299 1 -1 0
1124 368 4 -3.9444699086826644 4.218567564842985 -6.628558569568091 1 -1 0
349 110 4 -5.639730466072223 -6.834123114878856 -3.674474944981168 1 1 -1
251 77 4 -4.190729051650598 -5.613754502570967 -2.8793415411059526 -1 1 -1
249 77 2 -4.012421498663524 -6.0800596115607854 -2.851577960368598 -1 1 -1
1328 436 4 -6.025891956531233 -5.397004147908928 -3.4165980887246823 1 0 0
1326 436 2 -6.022715309159714 -4.897173424926764 -3.4281426688954832 1 0 0
1350 444 2 -4.7614849247861 -4.816982672231708 -2.8681666982100458 1 2 -1
556 179 4 -4.231089626528551 -5.1615849388386215 -3.203518687263141 0 1 1
1352 444 4 -4.632255977850905 -5.284884150738961 -2.9881273834402253 1 2 -1
911 297 4 -3.8386764460366707 -5.229046022935459 -2.8302512530842976 0 1 0
615 199 2 -2.2869146860393235 -4.870588667939463 -2.803938518563861 0 -1 0
616 199 4 -2.6464753884887338 -4.934473690843587 -3.14543642853787 0 -1 0
1031 337 4 -1.6384628419092404 -5.29466088196684 -2.2165494081191364 -1 1 0
1327 436 4 -6.0195504742426085 -4.397315281518003 -3.439731099298172 1 0 0
1351 444 4 -4.8906845972370805 -4.349120544632598 -2.748195008038201 1 2 -1
1214 398 4 -4.764615976466566 -4.367942985890417 -3.2229579109348587 0 0 0
685 222 4 -4.8693824045658 -3.551333224709718 -2.1341222525904837 0 0 0
968 316 4 -1.214083021254145 -4.190441357975924 -3.452444178983955 0 1 0
617 199 4 -1.9273694662973069 -4.8066939098288755 -2.4624185036262825 0 -1 0
452 144 4 -6.471613587278261 -2.5761285591864875 -2.468117625329975 0 0 0
677 219 4 -4.045348127318186 -1.8979404758466283 -2.797397668803223 0 -1 0
675 219 2 -3.7962898187844965 -1.6642784273528075 -2.4322022817003024 0 -1 0
676 219 4 -3.547231974003922 -1.430623531353036 -2.0670146584070697 0 -1 0
864 282 2 -6.564756699920112 -0.8315452157194175 -3.578744197867356 1 -1 -1
865 282 4 -6.5106195635552595 -0.4917725900266556 -3.941513825730607 1 -1 -1
866 282 4 -6.618929528456465 -1.171313697954608 -3.215941385817846 1 -1 -1
1493 491 4 -3.154525959663725 -1.127236563271881 -1.866490513487883 1 0 0
959 313 4 -4.721354569405965 -0.19732116152151735 -2.654388566188638 1 -1 1
1001 327 4 -2.3859286210260677 0.45377893096141103 -2.7053080162513568 0 -1 -1
1156 379 4 -5.224154005719228 0.23907466323101484 -3.6583165140884306 1 0 -1
329 103 4 -4.807906739480927 0.48566638306758086 -3.6527810132616865 1 0 1
565 182 4 -3.6904204322300465 0.8402420177452611 -3.2790322590491403 1 0 0
999 327 2 -2.7560585947127905 0.22484658285611664 -2.951453631901702 0 -1 -1
1000 327 4 -3.126201212072532 -0.0040900622728327245 -3.197612576879249 0 -1 -1
125 35 4 -1.0582126127690734 1.3961744972514372 -3.415600827991129 0 0 1
123 35 2 -0.9660305605865506 0.905127754937778 -3.3967323505378104 0 0 1
564 182 2 -3.5763562902470696 1.2362685887825497 -2.9959168712178306 1 0 0
449 143 4 -3.5800757774013614 1.8420855066892872 -2.233005081287718 0 -1 1
566 182 4 -3.4622872283114687 1.6322875038222644 -2.712784634852995 1 0 0
1114 365 4 -6.235537530466179 3.678919083623577 -3.6919712579335524 2 0 1
131 37 4 -5.7491450817183365 3.74945721892067 -3.5825591914867623 0 -1 0
85 22 4 -5.39210998155459 3.53638418497175 -2.4812704446310168 0 0 0
129 37 2 -5.757123851893331 4.063223268266423 -3.193358472709217 0 -1 0
130 37 4 -5.765067834932614 4.376990034780794 -2.80411693382189 0 -1 0
1170 384 2 -4.903420353859504 4.654418846163412 -3.268608221651447 0 1 0
1171 384 4 -5.332815576753837 4.631124294825757 -3.0134664898699373 0 1 0
786 256 2 -0.47540860364192616 3.7179376057064975 -3.187603296882686 -1 -1 -1
788 256 4 -0.8194450761735984 3.955205466246247 -2.9130977955943926 -1 -1 -1
607 196 4 -1.1715270406383866 4.317875268865946 -2.7821687872683754 -2 0 1
1455 479 2 -6.172026887958007 4.666543957710584 -2.381302854200718 1 0 1
1456 479 4 -5.687898989222829 4.662719613024216 -2.2563864145247736 1 0 1
578 186 4 -2.9433197641556372 6.535764548646538 -0.2462629635624472 0 -2 1
1339 440 4 -3.97366212029008 5.607110808117876 -2.6239240629960796 -1 1 0
856 279 4 -3.747307568442695 5.162954047124233 -2.300117380830865 1 0 -1
668 216 4 -0.31042292483836503 5.018347490752845 -3.2211624266186236 1 -2 0
606 196 2 -1.0377600608406614 4.434851504636499 -2.314814156042503 -2 0 1
1391 457 4 -6.5282857329864985 -6.584387323130363 -2.616715736316014 0 1 1
466 149 4 -5.944236627940988 6.592597751820601 -2.4947434147442915 0 0 1
465 149 2 -5.5009525873918435 6.820725072813526 -2.5329838932768634 0 0 1
611 197 4 -3.3872979559602467 6.569003195218526 -3.508271428544085 0 0 -1
610 197 4 -3.5790845130397253 5.9618426279558925 -2.737133764829438 0 0 -1
609 197 2 -3.483208789259082 6.265425872346435 -3.1226870013760393 0 0 -1
1208 396 4 -2.004379893883057 5.909531927676908 -3.3877678518754912 -2 0 0
1354 445 4 -1.759438343980061 6.107888114953067 -2.99294652894806 1 0 1
1353 445 2 -2.0022628377519953 6.240786662287485 -2.57657268098787 1 0 1
577 186 4 -3.732972977756649 5.952023475756642 -0.4353639666713904 0 -2 1
467 149 4 -5.057674525765181 -6.816497805251967 -2.5712640804372553 0 1 1
250 77 4 -3.8341283178279926 -6.54637002464152 -2.8238104689208012 -1 1 -1
1103 361 4 -3.848067586390557 -5.6103876179771 -1.6704768353209924 2 1 -1
245 75 4 -2.6220351377161366 -6.211788495130867 -1.782233265887254 0 3 0
244 75 4 -3.059866020937977 6.797766164513348 -1.5066548886341475 0 2 0
243 75 2 -2.840932004419031 -6.6396998147110855 -1.6444404558639787 0 3 0
1029 337 2 -1.8910866292260133 -5.6927791284107885 -2.050126571926077 -1 1 0
1030 337 4 -2.1437411544553613 -6.0908766114110895 -1.8837150316659994 -1 1 0
754 245 4 -3.8782452153113796 -4.880009860275106 -0.0006285449960931047 0 1 1
889 290 4 -0.4566856450917218 -6.1140864785390505 -1.2763552846409305 0 -1 0
1210 397 4 -0.0553657917655554 4.960304708346379 -2.7879936350503494 0 0 1
1102 361 4 -3.742984676182414 -4.852604338291763 -1.0265279160534986 2 1 -1
909 297 2 -3.5518915256939687 -5.178938920035637 -2.423735829358527 0 1 0
910 297 4 -3.2651457279224028 -5.128849001581343 -2.0172191038660494 0 1 0
1101 361 2 -3.795534222533867 -5.231485614453902 -1.3484934630479868 2 1 -1
997 326 4 -0.024859652078181218 -2.0270594093258247 -5.621132146272364 0 0 1
1417 466 4 -6.085923232104005 -4.142363924635492 -1.4944003440924858 1 -1 1
1416 466 2 -5.869601603950631 -3.694948282173348 -1.4394987482847212 1 -1 1
684 222 2 -4.500134838876718 -3.886298693665632 -2.1721565194854495 0 0 0
686 222 4 -4.1308696682788515 -4.221251608277006 -2.21020695122427 0 0 0
1418 466 4 -5.653242171561468 -3.2475290867069626 -1.384608773025997 1 -1 1
450 144 2 -6.893717023351787 -2.833283127233738 -2.39252094225373 0 0 0
1268 416 4 -4.142048391940795 -3.5565069897200248 -1.2566953764278734 1 -1 1
836 272 4 -5.593995113713566 -1.5642277495864403 -1.55878206856806 1 -1 -1
834 272 2 -5.232179012057695 -1.3069124170315956 -1.788767283921213 1 -1 -1
835 272 4 -4.87035846074491 -1.0495834337102743 -2.018722732655029 1 -1 -1
640 207 4 -5.961656650612657 -0.04682153525408135 -1.1424763318891131 -1 -1 0
958 313 4 -4.742912246178115 -0.654411311468715 -1.7652154241671583 1 -1 1
957 313 2 -4.73213066446831 -0.42586577679623816 -2.2098012719576756 1 -1 1
1491 491 2 -3.2949902240062614 -0.7255330435368825 -2.1289798096736536 1 0 0
1492 491 4 -3.435429971074453 -0.3238296051946765 -2.3914890998921035 1 0 0
487 156 4 -3.583023323184071 -0.48483138817521115 -0.579174351896281 1 0 1
102 28 2 -1.7956898789332683 -0.08904163519699813 -1.27494799103515 -1 0 0
103 28 4 -1.6359765634229515 0.37995851241403805 -1.2075463183402118 -1 0 0
207 63 2 -1.348043911934458 -1.12198533741875 -1.5323517679378598 0 1 -1
104 28 4 -1.9553949421404555 -0.5580140503266162 -1.3423500940115132 -1 0 0
208 63 4 -1.774381259073594 -0.888757915367428 -1.6499711808554614 0 1 -1
209 63 4 -0.9216917744550887 -1.35521745984529 -1.4147533276347959 0 1 -1
234 72 2 -5.345683879593307 0.7645779323266589 -1.3584253953843934 -1 0 0
236 72 4 -5.261867024708863 1.2069351439475706 -1.5758811348624115 -1 0 0
447 143 2 -4.052805419223981 1.8719208111069312 -2.072915816790335 0 -1 1
448 143 4 -4.525541393947653 1.9017733109288575 -1.912853025620832 0 -1 1
110 30 4 -3.583369459611204 1.6391892565716897 -1.1108435730728692 1 0 0
750 244 2 -2.7398651826394897 1.6741733384228916 -0.9672585110064669 0 0 0
751 244 4 -3.1391138907591682 1.3862800349093585 -1.0551294995126155 0 0 0
752 244 4 -2.3406154030523254 1.9620735045642062 -0.8793786856331878 0 0 0
854 278 4 -0.4559144955937035 2.2683871890494034 -1.9343705037122823 0 1 0
86 22 4 -4.587503826290888 4.125024922414583 -2.4031155839944613 0 0 0
650 210 4 -4.832590818376925 3.262883628080441 -1.5481627940219265 1 0 0
852 278 2 -0.26828346282452986 2.5090714080152416 -1.5383192308742262 0 1 0
331 104 4 -0.03986008707105144 -0.7848609995637705 -4.383989418474863 0 0 0
84 22 2 -4.989787266342765 3.8307170908532067 -2.442188113779307 0 0 0
720 234 2 -0.28684605492542126 3.626128130510301 -1.0603023883959473 -1 -1 0
1457 479 4 -6.656167971677622 4.67037174203126 -2.506214112449236 1 0 1
1338 440 2 -4.4685521096723875 5.677984944120683 -2.6316835655796176 -1 1 0
857 279 4 -3.711985792434631 5.103963912274579 -1.302455713790265 1 0 -1
855 279 2 -3.7296425488423233 5.133459832283013 -1.8012826261590693 1 0 -1
367 116 4 -3.5077074533979884 5.197147340925531 -0.8102957706199818 -1 -1 0
608 196 4 -0.9040121034997681 4.551836941091288 -1.8474544737452092 -2 0 1
1211 397 4 -0.11748657021071907 5.406597411521408 -1.8952513690932786 0 0 1
932 304 4 -4.464550748734072 -5.80153682495371 -6.8686345817778145 -1 1 -1
1245 409 2 -0.3505637065082346 5.796463807518726 -1.1725040396057704 1 0 -1
926 302 4 -6.755509572778359 6.030310089050072 -1.3901600200465856 2 0 -1
320 100 4 -4.6303356099061554 6.545500173758797 -1.7231431547285558 -1 0 0
1340 440 4 -4.963456977716087 5.748848101612529 -2.6393946859676864 -1 1 0
318 100 2 -4.753519442232004 6.603226858450393 -1.2420186688420232 -1 0 0
319 100 4 -4.8766968996835525 6.660948103621934 -0.7608609209024574 -1 0 0
1355 445 4 -2.2450884318849114 6.373686726372387 -2.160202508231044 1 0 1
210 64 2 -4.425563558826366 -6.294961394966615 -0.30463619992530067 -1 0 -1
212 64 4 -4.832736079626275 -6.169621815668472 -0.042908432003562834 -1 0 -1
211 64 4 -4.018406061292431 -6.42030277904436 -0.566367931949769 -1 0 -1
1209 397 2 -0.08643403829583758 5.183436313638998 -2.3416192122492356 0 0 1
1307 429 4 -0.14580343208199367 5.521156414401381 -6.239648346804625 0 1 1
658 213 4 -3.0934061057161824 -6.132589282093519 -0.6568481619843676 0 1 -2
657 213 2 -3.327441295219382 -6.182789741767755 -0.217864795438666 0 1 -2
1012 331 4 -2.442076387088615 -5.7309372882538225 -0.42895532803115904 -1 1 1
514 165 4 -6.57665358229696 -6.061666426676552 -0.21966494904500664 2 0 0
1059 347 2 -6.882407668242066 0.7791824227954133 -6.127654501481829 1 0 1
925 302 4 -6.401181977050025 5.284250484946685 -0.8263394475047362 2 0 -1
1011 331 2 -1.9491524468579495 -5.7605993075040685 -0.3505508396070705 -1 1 1
1375 452 4 -0.7863348955094667 -5.514240861113796 -0.4345645444009606 -2 1 2
1374 452 2 -0.5370411036328898 -5.791312184619274 -0.10127548599082972 -2 1 2
1223 401 4 -2.0821392065738733 -3.012855762141525 -0.8037640995766987 0 -1 0
1221 401 2 -1.9003801025420721 -3.472381521279045 -0.7275202716096696 0 -1 0
1222 401 4 -1.71860979193446 -3.9318918223247197 -0.6512836829128945 0 -1 0
960 314 2 -5.583918052418353 -2.4575932198242367 -1.0614691982024171 0 -2 -2
962 314 4 -5.309869636009813 -2.13231041655736 -0.7986633931874553 0 -2 -2
961 314 4 -5.857962423475224 -2.78290722647948 -1.3242978850074603 0 -2 -2
1266 416 2 -4.0567975976490676 -3.2285577660186777 -0.8890221851152618 1 -1 1
1267 416 4 -3.9715543912066598 -2.900598135099176 -0.5213605832148547 1 -1 1
1118 366 4 -3.5146429192405146 -3.1084698152437396 -0.5689993894940217 0 -1 0
1116 366 2 -3.280961075665009 -3.103282202660341 -0.1270150048711176 0 -1 0
701 227 4 -1.2352487991732322 -2.2578960453309 -0.503480018151292 -1 1 0
699 227 2 -0.836457321530755 -2.09063149934683 -0.7544633833426894 -1 1 0
302 94 4 -6.419059811122426 -0.3761489477114996 -1.1963776403275301 1 1 0
808 263 4 -1.326019814075036 -2.199475610060546 -0.01601125382639526 0 -1 -1
700 227 4 -0.43767100062780656 -1.9233798308397647 -1.0054689151286293 -1 1 0
639 207 2 -5.849931874414776 -0.34978702103957693 -0.7607320312550228 -1 -1 0
641 207 4 -5.738209468777243 -0.6527482774530915 -0.37897303855548575 -1 -1 0
488 156 4 -3.786711317773563 -1.4610012649846396 -0.5043857098587116 1 0 1
486 156 2 -3.684871886574846 -0.9729108248115772 -0.5417777680315156 1 0 1
227 69 4 -4.6261019507501935 0.02205507869307546 -0.3228638335283791 1 0 0
1097 359 4 -6.501866750505237 4.965721591194338 -0.455658175475148 1 0 1
533 171 4 -5.043000844509594 -2.224321195734674 -0.053371603497476335 1 0 0
235 72 4 -5.42950646592756 0.32222291680847176 -1.1409812644281712 -1 0 0
225 69 2 -4.255165554070694 0.35661402978292994 -0.34486959616950663 1 0 0
226 69 4 -3.8842227730782533 0.6911764596288966 -0.36686659859256565 1 0 0
109 30 4 -4.173508914305685 2.350230338981344 -0.7284708158419098 1 0 0
108 30 2 -3.878452010187298 1.9946988832499282 -0.9196567949299526 1 0 0
648 210 2 -4.668135845101398 2.990532484252458 -1.1624044954968469 1 0 0
649 210 4 -4.5037126408454755 2.718222559768947 -0.7766682718161001 1 0 0
1013 331 4 -1.4562021679601187 -5.790260761103563 -0.27218214271862967 -1 1 1
767 249 4 -0.8152206608859608 3.2246200360682433 -0.26220328395907405 -1 1 0
368 116 4 -2.8551063721554835 4.439742655768772 -0.8317011466104977 -1 -1 0
1096 359 4 -6.347751271751404 4.027520894177002 -0.7656531183443599 1 0 1
1095 359 2 -6.42480753911713 4.496598987686541 -0.6106418828535684 1 0 1
721 234 4 -0.6048384750038857 4.00316866463183 -0.9783083216648447 -1 -1 0
924 302 2 -6.578329315579117 5.657261816441911 -1.108247491992445 2 0 -1
1051 344 4 -4.444745126164121 -2.7580690925760742 -6.73666869919343 -2 -1 1
1112 364 4 -5.172356340986133 1.573119356207162 -6.756296898318341 0 0 1
829 270 4 -0.13951178866354383 0.4415642133054803 -5.988406684475757 0 1 0
709 230 4 -0.3290735293771918 -4.439735604666386 -5.707116445717346 -1 2 2
274 85 4 -0.5548038494789093 -2.573248303765988 -4.618837464190829 -2 0 0
273 85 2 -0.17727913251143135 -2.4795006741874532 -4.932968800030885 -2 0 0
853 278 4 -0.0806355870997957 2.74974284196489 -1.1422229426110533 0 1 0
822 268 2 -3.7482685342339543 -6.6921587171602335 0.7690641425313203 3 -1 -2
824 268 4 -3.5327449117159193 6.759031570152017 0.9479751695738119 3 -2 -2
823 268 4 -3.9638358130247417 -6.278007079909944 0.5901410086787897 3 -1 -2
232 71 4 -1.7894119263725283 -6.040865347517421 0.3590240202712585 -1 1 0
231 71 2 -2.0313483132084555 -5.88409180825487 0.7675079778123511 -1 1 0
1121 367 4 -1.1178201402345593 -6.854840036316428 0.5017562047407657 -1 -1 -1
1120 367 4 -0.177973738038723 -6.56953834742426 0.3138052065444248 -1 -1 -1
1119 367 2 -0.6479137810691864 -6.7121947487707345 0.4077788441151151 -1 -1 -1
753 245 2 -3.663377131967919 -4.570623569089784 0.32815687847908964 0 1 1
736 239 4 -0.08998708373706181 2.4021415773473764 5.064589570434242 0 0 0
538 173 4 -0.030484382733739906 -4.508294644859676 1.3632412585424898 1 -1 -1
71 17 4 -3.8437074288950077 -5.209856909188972 0.35649050360412443 -2 1 0
418 133 4 -5.653962103297523 -3.8999590125395884 6.481916258171334 1 1 -1
587 189 4 -3.8140752501647484 -4.055502486964545 0.9581313542357045 0 0 0
755 245 4 -3.448501065288627 -4.261210552054216 0.6569231916398741 0 1 1
585 189 2 -3.6359874775099534 -3.752372789349432 1.313663617432082 0 0 0
537 173 2 -0.06475915551331914 -4.562394664072059 0.867356504974709 1 -1 -1
539 173 4 -0.0990490388445934 -4.6164835088710925 0.37147505409981985 1 -1 -1
1008 330 2 -2.3749102461391804 -3.0339475233609186 0.737366759595693 2 1 0
1010 330 4 -2.5616827347798323 -2.985864222646543 0.27606751639568183 2 1 0
1117 366 4 -3.0472442230257712 -3.0980860141030364 0.3149799667104542 0 -1 0
1009 330 4 -2.188177518677316 -3.0820594380725495 1.1986867285775555 2 1 0
532 171 4 -5.841534806415193 -1.8712534189642536 0.43423108105396496 1 0 0
512 164 4 -5.818927695669081 -1.4735818357882344 0.7689819281136722 -1 2 1
510 164 2 -6.259120950985371 -1.5851780102572781 0.9781913752884632 -1 2 1
531 171 2 -5.442272893494255 -2.047777077900489 0.19043594985530962 1 0 0
1193 391 4 -4.78032684449014 -1.858635724887643 0.1419649781732786 1 -1 -1
893 291 4 -5.615096959766153 -2.0923200884760145 1.5082773936345464 1 0 -1
70 17 4 -4.25597344686688 -5.968627664189149 0.8608216162269934 -2 1 0
1191 391 2 -4.511839735355871 -1.4375154981435667 0.11801158547814862 1 -1 -1
1015 332 4 -3.8431450811244052 -1.2739685338903481 0.13703963869405883 1 -2 -2
1014 332 2 -3.502851789478282 -1.290521310643135 0.5030074775261054 1 -2 -2
1016 332 4 -3.162544676936834 -1.3070588724167485 0.8689486910020314 1 -2 -2
809 263 4 -1.894673293332561 -1.8265218309232132 0.7172098031083104 0 -1 -1
807 263 2 -1.6103524708824504 -2.013030274357132 0.35058240492052545 0 -1 -1
1169 383 4 -1.8195205004029364 -1.385132877047762 0.9651907435257873 1 0 0
1192 391 4 -4.243364218027275 -1.0163912617402087 0.09410388473437818 1 -1 -1
1168 383 4 -2.0129126013854046 -0.5822732336757557 0.4013395563215269 1 0 0