LAMMPS (29 Aug 2024)
OMP_NUM_THREADS environment is not set. Defaulting to 1 thread. (src/comm.cpp:98)
  using 1 OpenMP thread(s) per MPI task
package omp 0
using multi-threaded neighbor list subroutines
# Input Script of lammps for assembly simulation of polimeric network.

# Fco. Vazquez and Felipe Benavides

# Initialization
units lj
dimension 3
boundary p p p

# Styles of atoms and that stuff
atom_style bond
bond_style zero nocoeff
#pair_style hybrid/overlay/omp zero 0.0 lj/cut/omp 1.12 table/omp linear 5000000 threebody/table
pair_style hybrid/overlay/omp zero 0.0 lj/cut/omp 1.12 sw/omp threebody off threebody/table
newton on

# Create simulaiton box
region simulation_box block -$L $L -$L $L -$L $L
region simulation_box block -6.932675 $L -$L $L -$L $L
region simulation_box block -6.932675 6.932675 -$L $L -$L $L
region simulation_box block -6.932675 6.932675 -6.932675 $L -$L $L
region simulation_box block -6.932675 6.932675 -6.932675 6.932675 -$L $L
region simulation_box block -6.932675 6.932675 -6.932675 6.932675 -6.932675 $L
region simulation_box block -6.932675 6.932675 -6.932675 6.932675 -6.932675 6.932675
# N-atom-types region-ID keyword value Is necesesary the extra/special/per/atom (# of special neighbors per atom)
create_box 4 simulation_box     bond/types 1     extra/bond/per/atom 4     extra/special/per/atom 5
Created orthogonal box = (-6.932675 -6.932675 -6.932675) to (6.932675 6.932675 6.932675)
  2 by 2 by 2 MPI processor grid

# Atom types
mass 1 1.0      # CL
mass 2 1.0      # MO
mass 3 0.5      # PA
mass 4 0.5      # PB

# Coefficients
include potential.in
# Script with the pair-wise interaction and bonds between particles

bond_coeff * nocoeff
pair_coeff 1 3 zero
pair_coeff 1 4 zero
pair_coeff 2 3 zero
pair_coeff 2 4 zero
pair_coeff 3 3 zero
pair_coeff 1 1 lj/cut/omp 1.0 1.0 1.12
pair_coeff 2 2 lj/cut/omp 1.0 1.0 1.12
pair_coeff 1 2 lj/cut/omp 1.0 1.0 1.12
pair_coeff 3 4 sw/omp sysFiles/patchyPot.sw NULL NULL PA PB
  disabling sw potential three-body terms
pair_coeff 4 4 sw/omp sysFiles/patchyPot.sw NULL NULL PA PB
pair_coeff * * threebody/table swapMech.3b NULL NULL PA PB
pair_modify pair lj/cut/omp shift yes


# Molecules
include molecules.in
# Script with all molecule information and create groups for computes

# Read the molecule information
molecule CL sysFiles/molecule.patchy.CL
Read molecule template CL:
# Patchy Cross-Linker
  1 molecules
  0 fragments
  5 atoms with max type 3
  4 bonds with max type 1
  0 angles with max type 0
  0 dihedrals with max type 0
  0 impropers with max type 0
molecule MO sysFiles/molecule.patchy.MO
Read molecule template MO:
# Patchy Monomer
  1 molecules
  0 fragments
  3 atoms with max type 4
  2 bonds with max type 1
  0 angles with max type 0
  0 dihedrals with max type 0
  0 impropers with max type 0

# Introduce the molecules
# ID style args keyword arg
region spawn_box block -$L $L -$L $L -$L $L
region spawn_box block -6.932675 $L -$L $L -$L $L
region spawn_box block -6.932675 6.932675 -$L $L -$L $L
region spawn_box block -6.932675 6.932675 -6.932675 $L -$L $L
region spawn_box block -6.932675 6.932675 -6.932675 6.932675 -$L $L
region spawn_box block -6.932675 6.932675 -6.932675 6.932675 -6.932675 $L
region spawn_box block -6.932675 6.932675 -6.932675 6.932675 -6.932675 6.932675

# create_atoms type style args keyword values
# style_random: N seed region-ID
# keyword_mol: template-ID seed
# keyword_overlap: overlap value = only insert if at least this distance from all existing atoms
# keyword_maxtry: maxtry value = number of attempts to insert a particle before failure
create_atoms 0 random ${NCL} ${seed1} spawn_box mol CL ${seed1} overlap 1.0 maxtry 5000 #xls
create_atoms 0 random 10 ${seed1} spawn_box mol CL ${seed1} overlap 1.0 maxtry 5000 
create_atoms 0 random 10 1234 spawn_box mol CL ${seed1} overlap 1.0 maxtry 5000 
create_atoms 0 random 10 1234 spawn_box mol CL 1234 overlap 1.0 maxtry 5000 
Created 50 atoms
  using lattice units in orthogonal box = (-6.932675 -6.932675 -6.932675) to (6.932675 6.932675 6.932675)
  create_atoms CPU = 0.003 seconds
create_atoms 0 random ${NMO} ${seed2} spawn_box mol MO ${seed2} overlap 1.0 maxtry 5000 #mon
create_atoms 0 random 490 ${seed2} spawn_box mol MO ${seed2} overlap 1.0 maxtry 5000 
create_atoms 0 random 490 4321 spawn_box mol MO ${seed2} overlap 1.0 maxtry 5000 
create_atoms 0 random 490 4321 spawn_box mol MO 4321 overlap 1.0 maxtry 5000 
Created 1470 atoms
  using lattice units in orthogonal box = (-6.932675 -6.932675 -6.932675) to (6.932675 6.932675 6.932675)
  create_atoms CPU = 0.062 seconds

# Create patchy particles
group CrossLinker type 1 3
50 atoms in group CrossLinker
group Monomer type 2 4
1470 atoms in group Monomer
group Patches type 3 4
1020 atoms in group Patches
group CL type 1
10 atoms in group CL
group MO type 2
490 atoms in group MO
group PA type 3
40 atoms in group PA
group CM type 1 2
500 atoms in group CM

# Fix rigid bodies
fix frCL CrossLinker rigid/small/omp molecule
  create bodies CPU = 0.001 seconds
  10 rigid bodies with 50 atoms
  0.46400431 = max distance from body owner to body atom
fix frMO Monomer rigid/small/omp molecule
  create bodies CPU = 0.000 seconds
  490 rigid bodies with 1470 atoms
  0.5 = max distance from body owner to body atom

# Neighbor list
neighbor 1.12 bin # extra-distance style
neigh_modify exclude molecule/intra CrossLinker
neigh_modify exclude molecule/intra Monomer

# COMPUTES

# Compute global kinetic and potential energy and temperature
compute t all temp
compute tCM CM temp
compute ep all pe
compute ek all ke
compute ekCM CM ke
compute stressVirial all pressure t ke pair
compute wcaPair all pair lj/cut/omp epair
compute patchPair all pair sw/omp epair
compute swapPair all pair threebody/table epair
compute disc CM displace/atom
compute daux CM chunk/atom type pbc yes
compute dis CM reduce/chunk daux sum c_disc[4]
#compute disM CM reduce/chunk daux sum c_disc[4]

# Energy minimization
minimize 1.0e-4 1.0e-6 1000 10000
WARNING: Using a manybody potential with bonds/angles/dihedrals and special_bond exclusions (src/pair.cpp:243)
Hybrid pair style last /omp style sw/omp
Last active /omp style is pair_style sw/omp
WARNING: More than one fix rigid command (src/RIGID/fix_rigid_small.cpp:529)
WARNING: More than one fix rigid command (src/RIGID/fix_rigid_small.cpp:529)
Neighbor list info ...
  update: every = 1 steps, delay = 0 steps, check = yes
  max neighbors/atom: 2000, page size: 100000
  master list distance cutoff = 2.24
  ghost atom cutoff = 2.24
  binsize = 1.12, bins = 13 13 13
  6 neighbor lists, perpetual/occasional/extra = 6 0 0
  (1) pair zero, perpetual, skip from (5)
      attributes: half, newton on, omp
      pair build: skip/omp
      stencil: none
      bin: none
  (2) pair lj/cut/omp, perpetual, skip from (5)
      attributes: half, newton on, omp
      pair build: skip/omp
      stencil: none
      bin: none
  (3) pair sw/omp, perpetual, skip trim from (5)
      attributes: half, newton on, omp, cut 1.87
      pair build: skip/trim/omp
      stencil: none
      bin: none
  (4) pair threebody/table, perpetual, skip from (6)
      attributes: full, newton on, omp, cut 1.7200000000000002
      pair build: skip/omp
      stencil: none
      bin: none
  (5) neighbor class addition, perpetual
      attributes: half, newton on, omp
      pair build: half/bin/newton/omp
      stencil: half/bin/3d
      bin: standard
  (6) neighbor class addition, perpetual
      attributes: full, newton on, omp, cut 1.7200000000000002
      pair build: full/bin/omp
      stencil: full/bin/3d
      bin: standard
WARNING: Cannot count rigid body degrees-of-freedom before bodies are fully initialized (src/RIGID/fix_rigid_small.cpp:1129)
WARNING: Cannot count rigid body degrees-of-freedom before bodies are fully initialized (src/RIGID/fix_rigid_small.cpp:1129)
WARNING: Cannot count rigid body degrees-of-freedom before bodies are fully initialized (src/RIGID/fix_rigid_small.cpp:1129)
WARNING: Cannot count rigid body degrees-of-freedom before bodies are fully initialized (src/RIGID/fix_rigid_small.cpp:1129)
WARNING: Cannot count rigid body degrees-of-freedom before bodies are fully initialized (src/RIGID/fix_rigid_small.cpp:1129)
WARNING: Cannot count rigid body degrees-of-freedom before bodies are fully initialized (src/RIGID/fix_rigid_small.cpp:1129)
Per MPI rank memory allocation (min/avg/max) = 16.13 | 18.93 | 19.88 Mbytes
   Step          Temp          E_pair         E_mol          TotEng         Press     
         0   0              0.00067516832  0              0.00067516832  0.0062466692 
         1   0              0.00067516832  0              0.00067516832  0.0062466692 
Loop time of 0.000171143 on 8 procs for 1 steps with 1520 atoms

95.1% CPU use with 8 MPI tasks x 1 OpenMP threads

Minimization stats:
  Stopping criterion = quadratic factors are zero
  Energy initial, next-to-last, final = 
    0.000675168319707251 0.000675168319707251 0.000675168319707251
  Force two-norm initial, final = 21.154727 21.154727
  Force max component initial, final = 6.3589627 6.3589627
  Final line search alpha, max atom move = 0.015725835 0.1
  Iterations, force evaluations = 1 2

MPI task timing breakdown:
Section |  min time  |  avg time  |  max time  |%varavg| %total
---------------------------------------------------------------
Pair    | 2.3323e-05 | 2.7027e-05 | 3.8301e-05 |   0.0 | 15.79
Bond    | 3e-07      | 3.8075e-07 | 6.01e-07   |   0.0 |  0.22
Neigh   | 0          | 0          | 0          |   0.0 |  0.00
Comm    | 7.03e-05   | 8.32e-05   | 8.8397e-05 |   0.0 | 48.61
Output  | 0          | 0          | 0          |   0.0 |  0.00
Modify  | 4.468e-06  | 5.8233e-06 | 8.476e-06  |   0.0 |  3.40
Other   |            | 5.471e-05  |            |       | 31.97

Nlocal:            190 ave         194 max         187 min
Histogram: 1 1 3 0 0 1 0 0 1 1
Nghost:         675.25 ave         695 max         658 min
Histogram: 1 1 2 0 1 0 0 1 1 1
Neighs:              0 ave           0 max           0 min
Histogram: 8 0 0 0 0 0 0 0 0 0

Total # of neighbors = 0
Ave neighs/atom = 0
Ave special neighs/atom = 2.0657895
Neighbor list builds = 0
Dangerous builds = 0

# DUMPS and FIXES

thermo ${sstep}
thermo 500

# Save atom positions
dump dumpID all atom ${sstep} info/dumps/assembly/patchyParticles_assembly.*.dumpf
dump dumpID all atom 500 info/dumps/assembly/patchyParticles_assembly.*.dumpf
dump_modify dumpID pbc yes # remap atoms via periodic boundary conditions

# Save global energies and temperature
group Energy empty
0 atoms in group Energy
fix fixEng Energy ave/time 1 10 10 c_t c_ep c_ek c_tCM file info/energy_assembly.fixf

group PairE1 empty
0 atoms in group PairE1
group PairE2 empty
0 atoms in group PairE2
group PairE3 empty
0 atoms in group PairE3

fix fixwca PairE1 ave/time 1 10 10 c_wcaPair file info/wcaPair_assembly.fixf
fix fixpatch PairE2 ave/time 1 10 10 c_patchPair file info/patchPair_assembly.fixf
fix fixswap PairE3 ave/time 1 10 10 c_swapPair file info/swapPair_assembly.fixf

# Save Atom displacement
group Displ empty
0 atoms in group Displ
fix fixDispl Displ ave/time 1 ${Nave} ${Nave} c_dis[1] c_dis[2] c_dis[3] c_dis[4] file info/cmdisplacement_assembly.fixf
fix fixDispl Displ ave/time 1 100000 ${Nave} c_dis[1] c_dis[2] c_dis[3] c_dis[4] file info/cmdisplacement_assembly.fixf
fix fixDispl Displ ave/time 1 100000 100000 c_dis[1] c_dis[2] c_dis[3] c_dis[4] file info/cmdisplacement_assembly.fixf

# Save Stress tensor
group Stress empty
0 atoms in group Stress
fix fixStress5 Stress ave/time 1 ${Nave} ${Nave} c_stressVirial[*] file info/stressVirial_assembly.fixf
fix fixStress5 Stress ave/time 1 100000 ${Nave} c_stressVirial[*] file info/stressVirial_assembly.fixf
fix fixStress5 Stress ave/time 1 100000 100000 c_stressVirial[*] file info/stressVirial_assembly.fixf

# RUN SIMULATION

# Brownian Dynamics using Langevin Thermostat

# Set the time integrator
fix VelVerlet all nve/omp # Use Velocity Verlet integrator
timestep ${tstep}
timestep 0.001

# First elevate the temperature
fix ThermoLng all langevin 0.0 ${temp} ${damp} 12345 # Brownian Dynamics: langevin + nve
fix ThermoLng all langevin 0.0 0.05 ${damp} 12345 
fix ThermoLng all langevin 0.0 0.05 1 12345 
run 1000000
WARNING: Using a manybody potential with bonds/angles/dihedrals and special_bond exclusions (src/pair.cpp:243)
Hybrid pair style last /omp style sw/omp
Last active /omp style is pair_style sw/omp
WARNING: More than one fix rigid command (src/RIGID/fix_rigid_small.cpp:529)
WARNING: More than one fix rigid command (src/RIGID/fix_rigid_small.cpp:529)
WARNING: One or more atoms are time integrated more than once (src/modify.cpp:296)
WARNING: Computing temperature of portions of rigid bodies (src/RIGID/fix_rigid_small.cpp:1178)
WARNING: Computing temperature of portions of rigid bodies (src/RIGID/fix_rigid_small.cpp:1178)
Per MPI rank memory allocation (min/avg/max) = 20.18 | 20.18 | 20.19 Mbytes
   Step          Temp          E_pair         E_mol          TotEng         Press     
         1   0              0.00067516832  0              0.00067516832  0.021123967  
       500   0.00036143036  0              0              0.00029806115  0.00076301312
      1000   0.00016059025  0              0              0.00013243413 -0.0042082192 
      1500   9.9088611e-05  0              0              8.1715509e-05 -0.0087920156 
      2000   9.082724e-05   0              0              7.4902596e-05 -0.0010552033 
      2500   0.00010886438  0              0              8.9777301e-05  0.026712745  
      3000   0.00013060361  0              0              0.00010770501  0.018193721  
      3500   0.00015489662  0              0              0.00012773876 -0.015229809  
      4000   0.00017774973  0              0              0.00014658505  0.0031341882 
      4500   0.00019682191  5.388022e-08   0              0.00016236721  0.0092405373 
      5000   0.00022553537  0              0              0.00018599249 -0.0033443346 
      5500   0.0002500969   0              0              0.00020624767 -0.015049901  
      6000   0.00026348359  0              0              0.00021728729  0.025641245  
      6500   0.00031203635  0              0              0.00025732734 -0.036849665  
      7000   0.00032982431  0              0              0.00027199656 -0.018853915  
      7500   0.00036450397  6.8276387e-07  0              0.00030127863 -0.0026569421 
      8000   0.00038313698  1.7946346e-08  0              0.00031597993  0.026941423  
      8500   0.00042338991  2.160535e-08   0              0.00034917901 -0.012879208  
      9000   0.0004489195   0              0              0.00037021092  0.0045911156 
      9500   0.00046697816  6.7163308e-07  0              0.000385775   -0.002225898  
     10000   0.00050751431  0              0              0.00041853236 -0.030344066  
     10500   0.00050906148  0              0              0.00041980826  0.039310135  
     11000   0.00052616626  4.6907824e-07  0              0.00043438316  0.056481368  
     11500   0.00054688175  7.8354772e-07  0              0.0004517811  -0.023219562  
     12000   0.00053876962  4.2676733e-08  0              0.00044435039  0.016321031  
     12500   0.00058510965  0              0              0.00048252299  0.0071605475 
     13000   0.00060371448  1.5013272e-07  0              0.00049801599  0.0018381471 
     13500   0.00067279333  4.1224352e-07  0              0.00055524543 -0.029480579  
     14000   0.00067713981  4.7734142e-07  0              0.00055889494  0.042749376  
     14500   0.00067160896  2.5311504e-06  0              0.00055638762  0.011439985  
     15000   0.00070114158  2.50476e-07    0              0.00057846164 -0.014179497  
     15500   0.00074884812 -2.2497629e-07  0              0.00061732839  0.00069277707
     16000   0.0012038613  -0.00053351473  0              0.00045927482  0.053270542  
     16500   0.00085755648 -0.00046047971  0              0.0002467223  -0.060260498  
     17000   0.0017175076  -0.0015713319   0             -0.00015495313 -0.044417591  
     17500   0.001414035   -0.002128665    0             -0.00096255123  0.014951042  
     18000   0.0012377557  -0.0025946063   0             -0.001573865   -0.012629967  
     18500   0.0014788617  -0.0035716605   0             -0.002352086   -0.014462491  
     19000   0.0017520063  -0.0044361599   0             -0.002991331    0.0098056509 
     19500   0.0013764019  -0.0047328831   0             -0.0035978043  -0.017106267  
     20000   0.0015485531  -0.0061200589   0             -0.004843012   -0.02996822   
     20500   0.0024998599  -0.0081415609   0             -0.0060799988   0.01477806   
     21000   0.0024594693  -0.0096651805   0             -0.0076369274   0.012102858  
     21500   0.0023780095  -0.010590888    0             -0.0086298127   0.036593501  
     22000   0.0016258885  -0.01073645     0             -0.0093956263   0.00023419698
     22500   0.0014716068  -0.01102951     0             -0.0098159186  -0.062768093  
     23000   0.0031005727  -0.012846485    0             -0.010289533   -0.089703987  
     23500   0.0033390866  -0.014475545    0             -0.011721897   -0.020382627  
     24000   0.0018822783  -0.014649545    0             -0.013097285    0.069588479  
     24500   0.0020731319  -0.015883953    0             -0.014174301    0.034994087  
     25000   0.0020557914  -0.017014702    0             -0.01531935    -0.086567113  
     25500   0.0023236911  -0.018383555    0             -0.016467275   -0.039038013  
     26000   0.002683686   -0.019865225    0             -0.017652067   -0.01138068   
     26500   0.0028937484  -0.021639522    0             -0.019253131   -0.073282835  
     27000   0.0029040991  -0.02319369     0             -0.020798763   -0.020418724  
     27500   0.0023057512  -0.02379326     0             -0.021891774    0.029576316  
     28000   0.0022646293  -0.024719995    0             -0.02285242     0.08235859   
     28500   0.002135543   -0.025269337    0             -0.023508217    0.00065835756
     29000   0.0029006378  -0.027021712    0             -0.02462964     0.061358256  
     29500   0.0023468118  -0.027448806    0             -0.025513458   -0.014209717  
     30000   0.0019854783  -0.028401926    0             -0.02676456    -0.016357754  
     30500   0.0030674529  -0.030768398    0             -0.028238758   -0.0063767644 
     31000   0.0021460795  -0.031243704    0             -0.029473894   -0.041570556  
     31500   0.0027655324  -0.032501904    0             -0.030221249   -0.067178168  
     32000   0.0027247981  -0.033648701    0             -0.031401639   -0.015073301  
     32500   0.0027163959  -0.033952048    0             -0.031711915    0.064559915  
     33000   0.0033157316  -0.035514817    0             -0.032780429    0.0065768203 
     33500   0.0039721481  -0.038102402    0             -0.034826687   -0.052607517  
     34000   0.0022606797  -0.038858201    0             -0.036993883    0.082069629  
     34500   0.005486645   -0.038770532    0             -0.034245854   -0.026147862  
     35000   0.018039332   -0.039955029    0             -0.025078514    0.053769985  
     35500   0.0099180934  -0.042075984    0             -0.03389682     0.018060582  
     36000   0.006142963   -0.0435646      0             -0.038498676   -0.035731002  
     36500   0.0050759603  -0.044338912    0             -0.040152914   -0.034260841  
     37000   0.0037212321  -0.04658286     0             -0.043514067   -0.011240213  
     37500   0.0066892739  -0.047808719    0             -0.042292268   -0.01171876   
     38000   0.014639962   -0.050121541    0             -0.038048388    0.01918762   
     38500   0.0095807048  -0.050111235    0             -0.042210305    0.0061686659 
     39000   0.0073347896  -0.053123115    0             -0.047074326   -0.0003186388 
     39500   0.010627013   -0.054896404    0             -0.046132614   -0.089813505  
     40000   0.0060838366  -0.056125507    0             -0.051108344    0.084885544  
     40500   0.0065661914  -0.057464404    0             -0.052049456    0.19985267   
     41000   0.0050742725  -0.05957778     0             -0.055393174    0.045778503  
     41500   0.01343496    -0.060254548    0             -0.049175125   -0.021841447  
     42000   0.0062883036  -0.061526571    0             -0.056340789   -0.00061394723
     42500   0.0069414052  -0.064961937    0             -0.059237561   -0.037113971  
     43000   0.0071909045  -0.066643863    0             -0.060713732    0.068291744  
     43500   0.013328617   -0.065956258    0             -0.054964533    0.019589467  
     44000   0.0080885055  -0.068972428    0             -0.062302072   -0.055816776  
     44500   0.010582997   -0.069651677    0             -0.060924186    0.029058907  
     45000   0.026277505   -0.071584044    0             -0.049913746    0.097368619  
     45500   0.015523394   -0.072411377    0             -0.059609683   -0.087859782  
     46000   0.0094899154  -0.075297888    0             -0.06747183    -0.069812699  
     46500   0.0054022565  -0.076655718    0             -0.072200633    0.018700911  
     47000   0.0060012769  -0.08077086     0             -0.075821781    0.0063826002 
     47500   0.02125322    -0.080535967    0             -0.063009052    0.044882854  
     48000   0.010097287   -0.083389137    0             -0.075062197   -0.02817498   
     48500   0.0072992389  -0.084455298    0             -0.078435827    0.053820999  
     49000   0.0075953981  -0.084706555    0             -0.07844285    -0.049776336  
     49500   0.020770391   -0.086136743    0             -0.069008003   -0.052577267  
     50000   0.01047065    -0.090382421    0             -0.081747579    0.071747523  
     50500   0.028520633   -0.087621649    0             -0.064101509    0.035248201  
     51000   0.018950506   -0.089672169    0             -0.074044235   -0.039545329  
     51500   0.014108334   -0.091389158    0             -0.079754423   -0.059289394  
     52000   0.019807339   -0.093922243    0             -0.077587703    0.11475844   
     52500   0.010628202   -0.095821531    0             -0.08705676     0.082779955  
     53000   0.0065860482  -0.09712236     0             -0.091691037   -0.0069695281 
     53500   0.014046374   -0.098286183    0             -0.086702545   -0.028637725  
     54000   0.011202543   -0.10194271     0             -0.092704297    0.074162957  
     54500   0.0080283995  -0.10193912     0             -0.09531833     0.0016180853 
     55000   0.011755757   -0.10945346     0             -0.099758832    0.028871802  
     55500   0.021039791   -0.10756111     0             -0.090210202   -0.063306643  
     56000   0.019864605   -0.10988264     0             -0.093500872    0.04632263   
     56500   0.010077451   -0.1121896      0             -0.10387902     0.11178873   
     57000   0.011066353   -0.11309849     0             -0.10397239     0.069142275  
     57500   0.01361933    -0.11511681     0             -0.10388534    -0.0095924287 
     58000   0.0097421644  -0.11788445     0             -0.10985037     0.13241357   
     58500   0.0092517678  -0.11853353     0             -0.11090386     0.02827544   
     59000   0.01963961    -0.11774408     0             -0.10154786    -0.0051998368 
     59500   0.019226927   -0.12066668     0             -0.10481079     0.054838268  
     60000   0.010094485   -0.12066178     0             -0.11233715     0.019860713  
     60500   0.014971014   -0.12481639     0             -0.11247023     0.016711315  
     61000   0.023144681   -0.12635907     0             -0.10727232    -0.031859884  
     61500   0.024252978   -0.12497887     0             -0.10497814     0.10484302   
     62000   0.021252032   -0.12606804     0             -0.1085421     -0.058092774  
     62500   0.016012518   -0.12642523     0             -0.11322017     0.040223053  
     63000   0.01687524    -0.13011117     0             -0.11619465    -0.024402148  
     63500   0.01697319    -0.13166594     0             -0.11766864     0.0944354    
     64000   0.058737604   -0.1306986      0             -0.082259401   -0.03076372   
     64500   0.044770521   -0.1321603      0             -0.095239343   -0.033598094  
     65000   0.037553351   -0.13153933     0             -0.10057017     0.023958625  
     65500   0.020275089   -0.13428917     0             -0.11756889     0.067997149  
     66000   0.022703419   -0.13454533     0             -0.11582248    -0.004598482  
     66500   0.025222816   -0.13481289     0             -0.11401236     0.032378409  
     67000   0.020688054   -0.13891192     0             -0.12185108     0.15652839   
     67500   0.034951244   -0.14089021     0             -0.11206693    -0.039214838  
     68000   0.037962396   -0.14055885     0             -0.10925236     0.07514067   
     68500   0.03024953    -0.14410874     0             -0.11916282    -0.064502105  
     69000   0.016535339   -0.14563633     0             -0.13200012    -0.047680579  
     69500   0.029999167   -0.14639141     0             -0.12165196    -0.33379674   
     70000   0.014671874   -0.15087861     0             -0.13877914    -0.10071032   
     70500   0.015144337   -0.14883112     0             -0.13634202     0.0086365615 
     71000   0.014618378   -0.15337711     0             -0.14132175    -0.023170276  
     71500   0.014917174   -0.15151924     0             -0.13921748     0.080864987  
     72000   0.020817326   -0.15308399     0             -0.13591654    -0.059863278  
     72500   0.027336947   -0.15333119     0             -0.1307872      0.12052557   
     73000   0.027961481   -0.15369635     0             -0.13063733    -0.093854541  
     73500   0.031447269   -0.1548937      0             -0.12896004    -0.058983764  
     74000   0.023541009   -0.15548053     0             -0.13606695     0.023199943  
     74500   0.038756426   -0.15644466     0             -0.12448336    -0.057614694  
     75000   0.032173226   -0.15902394     0             -0.13249161     0.31523624   
     75500   0.054040426   -0.15289505     0             -0.10832947    -0.057419133  
     76000   0.065642997   -0.15334432     0             -0.099210441    0.10246319   
     76500   0.047843573   -0.15384588     0             -0.11439067     0.014874542  
     77000   0.059223064   -0.15778247     0             -0.10894292     0.063059543  
     77500   0.056243456   -0.15154912     0             -0.10516677     0.097578283  
     78000   0.036158662   -0.15761571     0             -0.12779671    -0.11779126   
     78500   0.035361657   -0.15622795     0             -0.12706621     0.11670661   
     79000   0.029310793   -0.15928234     0             -0.13511058    -0.036966285  
     79500   0.041488224   -0.15367407     0             -0.11945993    -0.081678729  
     80000   0.027221362   -0.15882654     0             -0.13637787     0.017880978  
     80500   0.032053306   -0.16264687     0             -0.13621344     0.019808982  
     81000   0.018070376   -0.16486991     0             -0.14996779    -0.025583276  
     81500   0.025543993   -0.1645136      0             -0.14344821    -0.01283527   
     82000   0.01777065    -0.1684782      0             -0.15382326     0.045852386  
     82500   0.038095272   -0.16625195     0             -0.13483589    -0.055918505  
     83000   0.041342627   -0.16559829     0             -0.13150422     0.12949327   
     83500   0.028282289   -0.17000852     0             -0.14668493    -0.025711043  
     84000   0.025319836   -0.17095073     0             -0.15007019     0.030150591  
     84500   0.014525094   -0.17987946     0             -0.16790104    -0.11761903   
     85000   0.010754288   -0.1787165      0             -0.16984775     0.00034126783
     85500   0.020853613   -0.17858506     0             -0.16138769    -0.11877443   
     86000   0.026232078   -0.18088697     0             -0.15925414     0.068522772  
     86500   0.03544956    -0.18101655     0             -0.15178232     0.048631708  
     87000   0.03311467    -0.17938687     0             -0.15207816     0.071201103  
     87500   0.032634614   -0.17823502     0             -0.1513222      0.18282343   
     88000   0.042245313   -0.18226908     0             -0.14743059    -0.0031045237 
     88500   0.083425657   -0.17348676     0             -0.10468803    -0.0047637784 
     89000   0.058427808   -0.17835421     0             -0.13017049     0.24299301   
     89500   0.048599134   -0.18076055     0             -0.14068225     0.060005714  
     90000   0.053957663   -0.17811381     0             -0.13361648    -0.083275488  
     90500   0.052588702   -0.17960321     0             -0.13623483     0.26171807   
     91000   0.0594621     -0.17876115     0             -0.12972447    -0.099564963  
     91500   0.060782098   -0.18009851     0             -0.12997327    -0.018638443  
     92000   0.054381472   -0.17899023     0             -0.1341434      0.095160534  
     92500   0.051322901   -0.18083796     0             -0.13851345    -0.13967188   
     93000   0.045557847   -0.17812452     0             -0.14055428     0.020925305  
     93500   0.048351404   -0.17925817     0             -0.13938416     0.066811609  
     94000   0.040992771   -0.17599992     0             -0.14219437    -0.12769544   
     94500   0.062323645   -0.17621044     0             -0.12481393     0.046698873  
     95000   0.048047603   -0.17656981     0             -0.13694634    -0.049059853  
     95500   0.042727654   -0.17794943     0             -0.14271317    -0.028379475  
     96000   0.028536732   -0.18080261     0             -0.15726919     0.017363197  
     96500   0.031814709   -0.17868201     0             -0.15244534    -0.07603191   
     97000   0.05241495    -0.18649547     0             -0.14327038     0.012979406  
     97500   0.04863868    -0.18261488     0             -0.14250397     0.042043338  
     98000   0.076550969   -0.18194109     0             -0.11881172     0.25712974   
     98500   0.052424949   -0.18211422     0             -0.13888089    -0.024235381  
     99000   0.064082639   -0.18449765     0             -0.13165055     0.062601184  
     99500   0.067250812   -0.18167817     0             -0.12621838    -0.20188849   
    100000   0.069580293   -0.18028635     0             -0.1229055      0.14614426   
    100500   0.048612436   -0.18405305     0             -0.14396378    -0.048476919  
    101000   0.046814283   -0.1843565      0             -0.14575012     0.034882646  
    101500   0.063833688   -0.18368518     0             -0.13104338    -0.12661736   
    102000   0.075107753   -0.18043081     0             -0.11849162    -0.016953414  
    102500   0.056430298   -0.18772401     0             -0.14118758    -0.055946119  
    103000   0.055683209   -0.18984253     0             -0.1439222      0.38901992   
    103500   0.039524      -0.1883166      0             -0.15572231     0.0029693148 
    104000   0.063777443   -0.18746222     0             -0.13486681    -0.039036676  
    104500   0.052532498   -0.19602852     0             -0.15270649     0.027570854  
    105000   0.069707937   -0.1842677      0             -0.12678159     0.064293229  
    105500   0.071479232   -0.18481323     0             -0.12586638     0.095854643  
    106000   0.051543577   -0.1913022      0             -0.1487957     -0.031581256  
    106500   0.036469032   -0.1905308      0             -0.16045585    -0.01850479   
    107000   0.06332898    -0.18927963     0             -0.13705405     0.026091585  
    107500   0.055678923   -0.18403386     0             -0.13811706     0.38920563   
    108000   0.060722275   -0.18639386     0             -0.13631795     0.076431335  
    108500   0.049266114   -0.1895099      0             -0.14888156    -0.36092261   
    109000   0.050385887   -0.19143548     0             -0.1498837     -0.024374445  
    109500   0.071625807   -0.18664692     0             -0.12757919     0.20629129   
    110000   0.082645245   -0.18350808     0             -0.11535294     0.20545007   
    110500   0.12156109    -0.18019488     0             -0.079946971   -9.530984e-05 
    111000   0.065681449   -0.18545417     0             -0.13128858     0.073665487  
    111500   0.054987042   -0.18181657     0             -0.13647035     0.045480234  
    112000   0.058153439   -0.1886414      0             -0.14068394     0.27279216   
    112500   0.076913474   -0.18804483     0             -0.12461651    -0.13541082   
    113000   0.064505243   -0.18527033     0             -0.13207473    -0.056322377  
    113500   0.057476453   -0.1844868      0             -0.13708764     0.19947641   
    114000   0.037912172   -0.18732124     0             -0.15605616     0.22275424   
    114500   0.055806523   -0.18244098     0             -0.13641896     0.30754134   
    115000   0.068644398   -0.18425244     0             -0.12764339    -0.026154396  
    115500   0.047311178   -0.18309117     0             -0.14407501    -0.064767127  
    116000   0.056030542   -0.18366797     0             -0.13746121     0.17531642   
    116500   0.082023252   -0.17902591     0             -0.1113837     -0.030264719  
    117000   0.047298857   -0.18141488     0             -0.14240888     0.031022705  
    117500   0.061742012   -0.17776053     0             -0.12684368     0.048328786  
    118000   0.084445094   -0.18041286     0             -0.11077343     0.1547174    
    118500   0.057382279   -0.18388703     0             -0.13656553     0.065301621  
    119000   0.044834976   -0.18632823     0             -0.14935413    -0.30839451   
    119500   0.050412026   -0.191652       0             -0.15007866     0.019874887  
    120000   0.059140696   -0.188943       0             -0.14017138     0.059989553  
    120500   0.082851843   -0.19731824     0             -0.12899272    -0.05357874   
    121000   0.067293388   -0.19349519     0             -0.13800028    -0.22444027   
    121500   0.052569652   -0.19015874     0             -0.14680607    -0.030718734  
    122000   0.11585581    -0.18955467     0             -0.094011737   -0.25888813   
    122500   0.091134722   -0.18322735     0             -0.10807118    -0.071508353  
    123000   0.10901369    -0.1757556      0             -0.085855165   -0.0046096078 
    123500   0.076501062   -0.18536391     0             -0.1222757     -0.071622367  
    124000   0.094971035   -0.17824893     0             -0.099929066    0.038065015  
    124500   0.068911574   -0.18643645     0             -0.12960707    -0.83095096   
    125000   0.085793051   -0.17933848     0             -0.10858743     0.26367299   
    125500   0.084643552   -0.18270832     0             -0.11290524    -0.15532158   
    126000   0.06671405    -0.17914697     0             -0.12412983    -0.13246852   
    126500   0.093983154   -0.18302008     0             -0.10551489    -0.071222808  
    127000   0.072207016   -0.17687787     0             -0.11733084     0.042920325  
    127500   0.057707819   -0.17936014     0             -0.13177017     0.20144558   
    128000   0.072479059   -0.18310806     0             -0.12333667     0.061057534  
    128500   0.061101492   -0.17377936     0             -0.12339073     0.083117382  
    129000   0.052850749   -0.18441916     0             -0.14083467    -0.085414108  
    129500   0.054425678   -0.18760571     0             -0.14272243    -0.12985743   
    130000   0.092875632   -0.17926923     0             -0.10267739     0.061772544  
    130500   0.074822005   -0.18533715     0             -0.12363361    -0.10606789   
    131000   0.077044835   -0.18621702     0             -0.12268038    -0.0053137813 
    131500   0.10634412    -0.18775834     0             -0.10005943     0.46044215   
    132000   0.08111866    -0.1865726      0             -0.11967639     0.56626806   
    132500   0.095315374   -0.1830428      0             -0.10443897    -0.012532307  
    133000   0.095211998   -0.18265968     0             -0.1041411     -0.011851249  
    133500   0.087248175   -0.18577535     0             -0.11382431    -0.067374186  
    134000   0.10368308    -0.18769742     0             -0.10219299     0.022293657  
    134500   0.11742304    -0.1806536      0             -0.083818214   -0.069028489  
    135000   0.07656771    -0.18691409     0             -0.12377091     0.10244963   
    135500   0.090154013   -0.18383162     0             -0.10948421    -0.32472825   
    136000   0.06174864    -0.18683794     0             -0.13591562    -0.11845863   
    136500   0.089020607   -0.18410295     0             -0.11069023     0.35357315   
    137000   0.098481984   -0.18289101     0             -0.10167577     0.095286411  
    137500   0.084200097   -0.18043762     0             -0.11100024    -0.071740408  
    138000   0.058356991   -0.18029312     0             -0.1321678      0.0092260004 
    138500   0.058156538   -0.18624425     0             -0.13828424    -0.04230032   
    139000   0.066659512   -0.18061204     0             -0.12563987    -0.17823684   
    139500   0.10448001    -0.18095049     0             -0.094788852    0.141716     
    140000   0.083772199   -0.18118761     0             -0.1121031      0.10610502   
    140500   0.073612781   -0.18417522     0             -0.12346889     0.15317547   
    141000   0.072166489   -0.18565524     0             -0.12614163    -0.092636024  
    141500   0.059551711   -0.18661981     0             -0.13750924     0.060968806  
    142000   0.038975961   -0.19345302     0             -0.16131067     0.079438334  
    142500   0.046136256   -0.19121395     0             -0.15316671    -0.0769044    
    143000   0.063054269   -0.19257871     0             -0.14057968    -0.22691688   
    143500   0.049025064   -0.19374919     0             -0.15331963    -0.036173286  
    144000   0.08657215    -0.18965348     0             -0.11825993    -0.047645102  
    144500   0.10123316    -0.19209592     0             -0.10861186    -0.13332423   
    145000   0.095811922   -0.19057804     0             -0.11156472     0.080119249  
    145500   0.088515466   -0.19044722     0             -0.11745107    -0.042044778  
    146000   0.106908      -0.18557101     0             -0.097407079   -0.20552704   
    146500   0.079613592   -0.18560586     0             -0.11995083     0.045080945  
    147000   0.11022722    -0.18127763     0             -0.090376434   -0.10115068   
    147500   0.058259749   -0.18573331     0             -0.13768818    -0.048614922  
    148000   0.08028219    -0.18719105     0             -0.12098465    -0.005247127  
    148500   0.061924489   -0.18659125     0             -0.13552392     0.029337406  
    149000   0.057201905   -0.1915495      0             -0.14437674     0.13564328   
    149500   0.10432901    -0.18557995     0             -0.099542834    0.06028814   
    150000   0.079846916   -0.18020928     0             -0.11436184     0.074341916  
    150500   0.10889377    -0.18314869     0             -0.09334715     0.13109691   
    151000   0.10051967    -0.1799652      0             -0.097069535    0.2760867    
    151500   0.062807289   -0.18616555     0             -0.1343702      0.0054299059 
    152000   0.054009214   -0.18634272     0             -0.14180288    -0.034699243  
    152500   0.066514102   -0.18693071     0             -0.13207846     0.10076669   
    153000   0.088117721   -0.18290626     0             -0.11023813    -0.1795813    
    153500   0.070751627   -0.1861904      0             -0.12784358    -0.043596759  
    154000   0.071516372   -0.18353635     0             -0.12455887     0.14059225   
    154500   0.044018163   -0.18287534     0             -0.14657483     0.10765665   
    155000   0.05219953    -0.18753244     0             -0.144485      -0.061579229  
    155500   0.073062566   -0.18771078     0             -0.1274582      0.010866114  
    156000   0.11432526    -0.18544173     0             -0.091160998    0.062986077  
    156500   0.075362948   -0.18479526     0             -0.12264562    -0.075379011  
    157000   0.073119515   -0.18895708     0             -0.12865753     0.014576561  
    157500   0.085146723   -0.18991793     0             -0.11969989    -0.24111191   
    158000   0.094898364   -0.18252104     0             -0.10426111     0.17278282   
    158500   0.11662249    -0.19115695     0             -0.094981755    0.010509573  
    159000   0.088010233   -0.18942558     0             -0.11684608    -0.028422404  
    159500   0.10514294    -0.18616748     0             -0.099459134    0.21150001   
    160000   0.1108941     -0.18113506     0             -0.089683907   -0.053861453  
    160500   0.10838055    -0.18599369     0             -0.096615385    0.24557007   
    161000   0.10273232    -0.18493551     0             -0.10021514    -0.24544509   
    161500   0.12294712    -0.18214721     0             -0.080756279   -0.059583579  
    162000   0.116461      -0.18497671     0             -0.088934693   -0.0031346951 
    162500   0.10057214    -0.18279283     0             -0.099853898    0.087239164  
    163000   0.092701178   -0.17680219     0             -0.10035422    -0.17492451   
    163500   0.090848072   -0.18368804     0             -0.10876827     0.092702265  
    164000   0.10336148    -0.18406239     0             -0.098823177   -0.02492303   
    164500   0.10998268    -0.18245445     0             -0.09175492    -0.10497618   
    165000   0.087140763   -0.17996181     0             -0.10809935    -0.029781943  
    165500   0.11247789    -0.18352839     0             -0.090771126   -0.11759947   
    166000   0.082113249   -0.18427781     0             -0.11656139     0.025642942  
    166500   0.086814816   -0.18995974     0             -0.11836607     0.0013710706 
    167000   0.1057139     -0.18397482     0             -0.096795628    0.16239891   
    167500   0.12262583    -0.18207621     0             -0.080950234    0.068705132  
    168000   0.13494067    -0.18046366     0             -0.069182      -0.11554171   
    168500   0.099689457   -0.17175799     0             -0.089546983   -0.11762805   
    169000   0.1086858     -0.17160959     0             -0.081979555   -0.88303341   
    169500   0.078730883   -0.16978332     0             -0.10485624    -0.1302556    
    170000   0.083270903   -0.1682482      0             -0.099577093    0.09516121   
    170500   0.092414281   -0.17032766     0             -0.094116278    0.33847576   
    171000   0.11622016    -0.16953479     0             -0.073691388    0.087994811  
    171500   0.087794085   -0.17114262     0             -0.098741378    0.13505365   
    172000   0.087256022   -0.17404368     0             -0.10208616     0.12164516   
    172500   0.076381516   -0.17441375     0             -0.11142412    -0.10647834   
    173000   0.051839675   -0.17511123     0             -0.13236056    -0.013633482  
    173500   0.043433146   -0.17705314     0             -0.14123508     0.075889366  
    174000   0.073602471   -0.18061471     0             -0.11991688    -0.82378553   
    174500   0.072302874   -0.17849466     0             -0.11886857    -0.022408913  
    175000   0.088855612   -0.18040107     0             -0.10712442    -0.016440264  
    175500   0.060616644   -0.18253263     0             -0.13254384    -0.050247658  
    176000   0.048447675   -0.18496646     0             -0.14501306     0.11274215   
    176500   0.028102906   -0.18994977     0             -0.16677412     0.14262739   
    177000   0.039702999   -0.19271249     0             -0.15997057     0.026866838  
    177500   0.062310218   -0.19376742     0             -0.14238199    -0.093375067  
    178000   0.089206205   -0.18828078     0             -0.11471501     0.06178724   
    178500   0.050407696   -0.19363118     0             -0.15206141    -0.1085503    
    179000   0.057188658   -0.19131629     0             -0.14415446    -0.16713677   
    179500   0.086789336   -0.18994708     0             -0.11837443     0.16155621   
    180000   0.058300139   -0.19160362     0             -0.14352518     0.22290209   
    180500   0.07840815    -0.19085627     0             -0.12619534     0.14614828   
    181000   0.085267206   -0.18991632     0             -0.11959892     0.14161336   
    181500   0.082568839   -0.19165689     0             -0.12356476    -0.025735045  
    182000   0.092063195   -0.18677272     0             -0.11085087    -0.10968862   
    182500   0.088782479   -0.18449884     0             -0.1112825     -0.1374224    
    183000   0.068450215   -0.18876141     0             -0.1323125     -0.14574704   
    183500   0.10924847    -0.18559808     0             -0.095504026   -0.1202634    
    184000   0.080597021   -0.18748217     0             -0.12101614    -0.086845     
    184500   0.063252355   -0.18957161     0             -0.13740922    -0.16757018   
    185000   0.051660766   -0.1975539      0             -0.15495076    -0.023750209  
    185500   0.096056816   -0.19080592     0             -0.11159065    -0.088354081  
    186000   0.078780935   -0.19285071     0             -0.12788235    -0.014540293  
    186500   0.10256457    -0.19353758     0             -0.10895554    -0.23648435   
    187000   0.059457777   -0.19228824     0             -0.14325514    -0.065425206  
    187500   0.10922034    -0.19086796     0             -0.10079711    -0.048694623  
    188000   0.093178639   -0.19219101     0             -0.11534928     0.30914131   
    188500   0.059532446   -0.19614106     0             -0.14704637    -0.05574405   
    189000   0.066805198   -0.200825       0             -0.14573268     0.01474919   
    189500   0.077514574   -0.19491029     0             -0.13098626    -0.16445801   
    190000   0.08438895    -0.19507688     0             -0.12548376    -0.48798804   
    190500   0.070744478   -0.1967171      0             -0.13837617     0.14239384   
    191000   0.064183014   -0.19659217     0             -0.1436623      0.026742418  
    191500   0.067665647   -0.19635481     0             -0.14055291     0.034196541  
    192000   0.081413439   -0.19523859     0             -0.12809928    -0.12119651   
    192500   0.16313227    -0.18909498     0             -0.054564517   -0.03623986   
    193000   0.11715151    -0.18197627     0             -0.085364811    0.073604436  
    193500   0.074711687   -0.18832149     0             -0.12670893    -0.19551856   
    194000   0.08688901    -0.19257351     0             -0.12091866    -0.04957823   
    194500   0.084415847   -0.19158322     0             -0.12196791    -0.094957155  
    195000   0.091488588   -0.18863918     0             -0.11319119    -0.058860673  
    195500   0.078207757   -0.18145281     0             -0.11695714     0.0024893598 
    196000   0.073974698   -0.18548694     0             -0.12448215    -0.92030483   
    196500   0.079752324   -0.18904691     0             -0.12327748     0.16728123   
    197000   0.086220814   -0.18716092     0             -0.11605711    -0.28579709   
    197500   0.077685955   -0.19162339     0             -0.12755803    -0.084536624  
    198000   0.080429505   -0.19548426     0             -0.12915638     0.014624915  
    198500   0.063170015   -0.19471772     0             -0.14262324    -0.17263621   
    199000   0.053381161   -0.19615942     0             -0.15213752    -0.27016491   
    199500   0.13880072    -0.1930479      0             -0.078582958    0.24045399   
    200000   0.090650472   -0.19603168     0             -0.12127486     0.28944046   
    200500   0.10344731    -0.19185125     0             -0.10654125     0.070819884  
    201000   0.062642878   -0.19419193     0             -0.14253216    -0.20333109   
    201500   0.059360916   -0.19002752     0             -0.14107429    -0.056644051  
    202000   0.051555115   -0.19463608     0             -0.15212007     0.17593289   
    202500   0.046202158   -0.19931355     0             -0.16121197    -0.33548066   
    203000   0.089089212   -0.19494171     0             -0.12147241     0.1606024    
    203500   0.097556386   -0.18511796     0             -0.10466603    -0.10949197   
    204000   0.068214584   -0.19345384     0             -0.13719925    -0.045378898  
    204500   0.039898139   -0.19646689     0             -0.16356405     0.088243199  
    205000   0.067563035   -0.19472736     0             -0.13901008    -0.071548171  
    205500   0.064142703   -0.19643211     0             -0.14353548     0.0078807785 
    206000   0.041062362   -0.20320603     0             -0.16934309    -0.16724138   
    206500   0.05492153    -0.20141656     0             -0.15612437     0.14155949   
    207000   0.049246093   -0.20529228     0             -0.16468045    -0.33106447   
    207500   0.067908529   -0.2027025      0             -0.1467003      0.15785644   
    208000   0.045743547   -0.20737994     0             -0.16965656    -0.14037307   
    208500   0.047944514   -0.20732932     0             -0.16779087    -0.16481219   
    209000   0.046425693   -0.21172432     0             -0.17343839     0.14470908   
    209500   0.071373596   -0.20200925     0             -0.14314951    -0.12104346   
    210000   0.0810018     -0.20236773     0             -0.13556789    -0.28012931   
    210500   0.10065883    -0.20206759     0             -0.11905717    -0.013790401  
    211000   0.070793328   -0.19503325     0             -0.13665204     0.14365586   
    211500   0.047214578   -0.20642038     0             -0.16748389     0.10830086   
    212000   0.053202107   -0.20626612     0             -0.16239188     0.038651208  
    212500   0.060587778   -0.20778143     0             -0.15781644    -0.036371269  
    213000   0.053817338   -0.20658923     0             -0.16220763     0.0010905544 
    213500   0.084122826   -0.20473989     0             -0.13536623    -0.48845144   
    214000   0.13451522    -0.20019342     0             -0.089262618   -0.15689158   
    214500   0.12749386    -0.18841417     0             -0.083273677    0.0034374377 
    215000   0.093742098   -0.19592616     0             -0.11861977     0.10358224   
    215500   0.10743882    -0.19643455     0             -0.10783287    -0.03701355   
    216000   0.14337375    -0.19319283     0             -0.074956647    0.10643751   
    216500   0.11772548    -0.19342885     0             -0.096344056   -0.073755911  
    217000   0.1015407     -0.18496831     0             -0.10123063     0.15512036   
    217500   0.07901409    -0.19163598     0             -0.12647534    -0.12737211   
    218000   0.065816021   -0.19468281     0             -0.14040625     0.015825476  
    218500   0.098863296   -0.19799565     0             -0.11646595    -0.055912036  
    219000   0.14339291    -0.18348391     0             -0.065231928   -0.070065751  
    219500   0.11583012    -0.18546954     0             -0.089947797    0.13811508   
    220000   0.08329213    -0.19095552     0             -0.12226691     0.24123076   
    220500   0.093114391   -0.18159582     0             -0.10480708     0.10084446   
    221000   0.078505642   -0.19423146     0             -0.12949013     0.09558044   
    221500   0.11506232    -0.18957689     0             -0.094688329   -0.15796431   
    222000   0.064988642   -0.19018533     0             -0.13659108     0.33254521   
    222500   0.088175514   -0.19241544     0             -0.11969964     0.1961683    
    223000   0.08597868    -0.18871069     0             -0.11780657     0.037165908  
    223500   0.095479275   -0.18615776     0             -0.10741877     0.15904465   
    224000   0.090097098   -0.18879862     0             -0.11449815     0.3509985    
    224500   0.085257716   -0.19092238     0             -0.12061281    -0.045940255  
    225000   0.11925595    -0.19097379     0             -0.092626865   -0.071914457  
    225500   0.078458282   -0.18948803     0             -0.12478576     0.016697127  
    226000   0.1069872     -0.18711746     0             -0.098888217   -0.18754458   
    226500   0.074695861   -0.18583152     0             -0.124232       0.023457047  
    227000   0.08136867    -0.18524206     0             -0.11813968     0.08967702   
    227500   0.084601103   -0.1890311      0             -0.11926301     0.12376306   
    228000   0.091856774   -0.19377518     0             -0.11802355     0.28750253   
    228500   0.12111023    -0.1840415      0             -0.084165401   -0.081979273  
    229000   0.096170664   -0.18720746     0             -0.10789829     0.11498107   
    229500   0.078818285   -0.18624676     0             -0.1212476     -0.13860582   
    230000   0.081437285   -0.192713       0             -0.12555403     0.010472932  
    230500   0.0791104     -0.18535341     0             -0.12011335     0.26789489   
    231000   0.086638828   -0.18860385     0             -0.11715531    -0.026179204  
    231500   0.061798655   -0.18712243     0             -0.13615887    -0.3218958    
    232000   0.10813933    -0.18780444     0             -0.09862506    -0.018449463  
    232500   0.085500544   -0.17712676     0             -0.10661693     0.27832753   
    233000   0.078725193   -0.18770534     0             -0.12278295    -0.04367431   
    233500   0.096456401   -0.18258934     0             -0.10304454    -0.11147012   
    234000   0.11952274    -0.17764043     0             -0.079073489    0.12020889   
    234500   0.090552603   -0.18406192     0             -0.10938581    -0.16605607   
    235000   0.10151387    -0.17830356     0             -0.094588016    0.36594      
    235500   0.11645989    -0.17892431     0             -0.082883205    0.01758566   
    236000   0.096626023   -0.17907448     0             -0.099389799    0.13088531   
    236500   0.076967672   -0.1828244      0             -0.11935139     0.017368279  
    237000   0.11683524    -0.18337278     0             -0.087022144   -0.20862528   
    237500   0.11230697    -0.18337913     0             -0.090762817    0.43688265   
    238000   0.11190791    -0.19238612     0             -0.10009891     0.15917607   
    238500   0.087245613   -0.18628275     0             -0.11433382     0.040086853  
    239000   0.082293417   -0.18783775     0             -0.11997275     0.046150649  
    239500   0.10801319    -0.19122675     0             -0.1021514      0.17656862   
    240000   0.13931728    -0.18446915     0             -0.06957822     0.22173619   
    240500   0.1201978     -0.18500108     0             -0.085877435   -0.090559442  
    241000   0.14762346    -0.18731214     0             -0.065571343    0.020535397  
    241500   0.15823435    -0.17948467     0             -0.048993383    0.036837406  
    242000   0.088238845   -0.1848519      0             -0.11208388    -0.13856216   
    242500   0.12147408    -0.18318661     0             -0.083010455    0.23029125   
    243000   0.16136739    -0.17708601     0             -0.04401099     0.044361811  
    243500   0.097299871   -0.18257556     0             -0.10233517    -0.013354443  
    244000   0.08695337    -0.18145221     0             -0.10974428    -0.19858821   
    244500   0.091349245   -0.18596526     0             -0.11063219    -0.44566027   
    245000   0.096297247   -0.18365772     0             -0.10424416    -0.086796721  
    245500   0.091108002   -0.18549524     0             -0.11036111    -0.072314347  
    246000   0.10008986    -0.18426629     0             -0.10172508     0.28084424   
    246500   0.13151803    -0.1808322      0             -0.072373086   -0.10089215   
    247000   0.10499103    -0.18926626     0             -0.1026832     -0.10701441   
    247500   0.12783772    -0.1824865      0             -0.07706243     0.024849577  
    248000   0.11755294    -0.17943434     0             -0.082491832   -0.1391231    
    248500   0.10269167    -0.17682619     0             -0.092139344    0.010936514  
    249000   0.08618955    -0.17746588     0             -0.10638785     0.10310055   
    249500   0.081465588   -0.17917843     0             -0.11199612     0.22423847   
    250000   0.075030526   -0.17575388     0             -0.11387838    -0.13825307   
    250500   0.053681863   -0.18056058     0             -0.1362907      0.046164824  
    251000   0.064314864   -0.1865248      0             -0.1334862      0.20156713   
    251500   0.13753792    -0.18253011     0             -0.069106566    0.02139487   
    252000   0.080649115   -0.18757704     0             -0.12106805     0.06171026   
    252500   0.099992737   -0.19045192     0             -0.10799081     0.014574782  
    253000   0.081370212   -0.18688872     0             -0.11978506     0.018320449  
    253500   0.11260953    -0.18726926     0             -0.094403435   -0.16289522   
    254000   0.1070967     -0.18865628     0             -0.10033674    -0.098540427  
    254500   0.096287533   -0.18489732     0             -0.10549178     0.22051876   
    255000   0.081132596   -0.18578577     0             -0.11887807     0.043740513  
    255500   0.090782162   -0.18720354     0             -0.11233812     0.16637417   
    256000   0.091568299   -0.18990672     0             -0.11439299    -0.065812079  
    256500   0.083260791   -0.19234996     0             -0.1236872      0.033913016  
    257000   0.10071769    -0.18080461     0             -0.097745649   -0.29950216   
    257500   0.13824004    -0.17436737     0             -0.060364812    0.00063485002
    258000   0.12328167    -0.17787995     0             -0.076213125    0.057488724  
    258500   0.120899      -0.17573235     0             -0.076030449   -0.85565868   
    259000   0.098610216   -0.17814884     0             -0.09682785    -0.094061851  
    259500   0.1340471     -0.17757761     0             -0.067032848    0.15101808   
    260000   0.10334321    -0.17103242     0             -0.085808268    0.05133415   
    260500   0.083321915   -0.17853402     0             -0.10982084    -0.15653443   
    261000   0.082200503   -0.18392186     0             -0.11613348    -0.3305693    
    261500   0.089301754   -0.186083       0             -0.11243843    -0.28436668   
    262000   0.099736787   -0.18335308     0             -0.10110304     0.25142095   
    262500   0.11298766    -0.1856009      0             -0.09242325    -0.3808389    
    263000   0.10355249    -0.18101572     0             -0.095618983   -0.36967196   
    263500   0.10520411    -0.1845855      0             -0.097826714    0.040816649  
    264000   0.13612542    -0.1765289      0             -0.064270212   -0.84636172   
    264500   0.1293875     -0.17839178     0             -0.071689648   -0.048514705  
    265000   0.12088573    -0.18393632     0             -0.084245357    0.13334546   
    265500   0.10640978    -0.18265219     0             -0.094899126   -0.052505775  
    266000   0.10004437    -0.18328538     0             -0.10078168     0.29536016   
    266500   0.135029      -0.18139305     0             -0.070038543   -0.01076125   
    267000   0.11341142    -0.18204894     0             -0.088521821   -0.16526982   
    267500   0.13477064    -0.18412136     0             -0.072979912   -0.070233374  
    268000   0.1497994     -0.18008556     0             -0.056550334   -0.26574526   
    268500   0.13487642    -0.17511637     0             -0.063887689   -0.10656044   
    269000   0.11194047    -0.18301127     0             -0.090697203    0.083255458  
    269500   0.086004184   -0.18637631     0             -0.11545115    -0.045432919  
    270000   0.10778986    -0.17889673     0             -0.090005556   -0.070648966  
    270500   0.14029478    -0.17497395     0             -0.059276911   -0.49940915   
    271000   0.10145165    -0.1729699      0             -0.089305657   -0.028914906  
    271500   0.07228347    -0.1837018      0             -0.12409172     0.11489979   
    272000   0.06358332    -0.17918396     0             -0.12674864     0.059754509  
    272500   0.090355635   -0.1898612      0             -0.11534753     0.11838529   
    273000   0.12160222    -0.18168816     0             -0.081406333    0.49386935   
    273500   0.17457853    -0.17528652     0             -0.031316658    0.063935077  
    274000   0.10638687    -0.18446795     0             -0.096733775   -0.021387481  
    274500   0.10876437    -0.1803545      0             -0.090659677    0.31193936   
    275000   0.14149083    -0.17595967     0             -0.059276272   -0.11063348   
    275500   0.10487627    -0.18491373     0             -0.098425298    0.20918167   
    276000   0.078097589   -0.1761755      0             -0.11177068    -0.19651977   
    276500   0.10829224    -0.18115236     0             -0.091846884    0.098512079  
    277000   0.085416929   -0.16855139     0             -0.098110524   -0.10946138   
    277500   0.1065257     -0.17832734     0             -0.090478676   -0.10408127   
    278000   0.11237515    -0.17425643     0             -0.081583893    0.11778654   
    278500   0.13001484    -0.17723415     0             -0.07001467     0.11253514   
    279000   0.1356597     -0.17597166     0             -0.064097032    0.0036906855 
    279500   0.10210025    -0.17512332     0             -0.090924197    0.010387362  
    280000   0.08977694    -0.17895071     0             -0.10491426    -0.034901075  
    280500   0.069453978   -0.18157142     0             -0.12429473     0.077750891  
    281000   0.0683545     -0.17907945     0             -0.12270947    -0.11325845   
    281500   0.069830813   -0.18124508     0             -0.12365763     0.19483584   
    282000   0.10006287    -0.18590768     0             -0.10338873     0.13954581   
    282500   0.082443153   -0.18614189     0             -0.11815341    -0.012368605  
    283000   0.071985619   -0.18956778     0             -0.13020333     0.13509332   
    283500   0.059689573   -0.19386758     0             -0.14464332    -0.40724158   
    284000   0.081585175   -0.19061297     0             -0.12333204     0.060654407  
    284500   0.074173672   -0.19064608     0             -0.1294772     -0.23462735   
    285000   0.095891507   -0.18902793     0             -0.10994898    -0.11809      
    285500   0.080676909   -0.19569673     0             -0.12916481    -0.18017299   
    286000   0.075090938   -0.20299081     0             -0.14106549     0.016629361  
    286500   0.091360773   -0.19782656     0             -0.12248397    -0.032595968  
    287000   0.12972311    -0.18628833     0             -0.079309443    0.29792069   
    287500   0.096663114   -0.19648576     0             -0.11677048     0.19251367   
    288000   0.086736939   -0.19631975     0             -0.1247903      0.11817651   
    288500   0.09702754    -0.20176426     0             -0.12174846     0.15183298   
    289000   0.20196739    -0.18788817     0             -0.021331512    0.14686487   
    289500   0.10778779    -0.19024408     0             -0.10135461    -0.010386029  
    290000   0.10945433    -0.19187373     0             -0.10160992     0.017778796  
    290500   0.12050429    -0.19568769     0             -0.096311293    0.19182943   
    291000   0.14597707    -0.19386479     0             -0.073481725   -0.068611412  
    291500   0.11711823    -0.19151912     0             -0.094935102   -0.045944433  
    292000   0.15428337    -0.19231322     0             -0.065080189    0.07354373   
    292500   0.12871094    -0.19467007     0             -0.088525892   -0.10289417   
    293000   0.12550902    -0.18615581     0             -0.082652161    0.24528742   
    293500   0.15609734    -0.19137822     0             -0.062649261    0.03175609   
    294000   0.11839957    -0.19112381     0             -0.093483113   -0.13349628   
    294500   0.098526009   -0.19144478     0             -0.11019323     0.099891853  
    295000   0.092452643   -0.19080301     0             -0.11455999    -0.17964577   
    295500   0.082201079   -0.19648717     0             -0.12869832    -0.37339244   
    296000   0.10631393    -0.18769483     0             -0.10002081    -0.060390296  
    296500   0.092746926   -0.18436576     0             -0.10788005     0.093481456  
    297000   0.10819124    -0.18652023     0             -0.097298052    0.20250555   
    297500   0.12993881    -0.18294307     0             -0.075786289    0.26462719   
    298000   0.10689971    -0.18688364     0             -0.098726545    0.58030732   
    298500   0.084429379   -0.1887376      0             -0.11911113    -0.012030928  
    299000   0.10144526    -0.19582401     0             -0.11216503     0.14436571   
    299500   0.092461202   -0.19298599     0             -0.11673591     0.082578525  
    300000   0.082934469   -0.19554934     0             -0.12715568    -0.11014337   
    300500   0.072940055   -0.1912987      0             -0.13114715    -0.16878116   
    301000   0.092457673   -0.19016561     0             -0.11391844     0.25013763   
    301500   0.093210582   -0.1915642      0             -0.11469613     0.16958906   
    302000   0.13144837    -0.18645794     0             -0.078056277   -0.031325487  
    302500   0.096364563   -0.18717071     0             -0.10770165     0.11737573   
    303000   0.084848241   -0.18982688     0             -0.11985499     0.41299849   
    303500   0.10079715    -0.19255325     0             -0.10942875     0.004106756  
    304000   0.11668825    -0.18458733     0             -0.088357903    0.16873418   
    304500   0.076777609   -0.19095014     0             -0.12763386     0.059700737  
    305000   0.1379537     -0.19028237     0             -0.076515947   -0.14290889   
    305500   0.18486815    -0.17819553     0             -0.025740112   -0.19869116   
    306000   0.13494588    -0.1752183      0             -0.063932339   -0.1263553    
    306500   0.087118401   -0.17502506     0             -0.10318104    -0.084614104  
    307000   0.093339077   -0.17521155     0             -0.098237511    0.087763324  
    307500   0.12423735    -0.17407053     0             -0.071615578    0.012557844  
    308000   0.094492734   -0.17176838     0             -0.093842953    0.054621127  
    308500   0.096861095   -0.17726229     0             -0.097383745    0.062117487  
    309000   0.10129338    -0.180915       0             -0.097381281   -0.049594843  
    309500   0.093876259   -0.17610073     0             -0.098683695    0.036597524  
    310000   0.079555911   -0.1783884      0             -0.11278095     0.10550934   
    310500   0.097088717   -0.17466204     0             -0.094595782   -0.094092879  
    311000   0.091359582   -0.17994857     0             -0.10460697     0.26474247   
    311500   0.093928946   -0.18326244     0             -0.10580196    -0.35694337   
    312000   0.079271076   -0.18340334     0             -0.11803078    -0.26280138   
    312500   0.09722865    -0.18314607     0             -0.10296442    -0.37062731   
    313000   0.09830356    -0.18137582     0             -0.10030771    -0.12386751   
    313500   0.095721259   -0.18369649     0             -0.10475794    -0.029957535  
    314000   0.083855042   -0.18613187     0             -0.11697905     0.18477164   
    314500   0.075131832   -0.18761076     0             -0.12565171    -0.20218697   
    315000   0.051049676   -0.18702563     0             -0.14492644     0.046583435  
    315500   0.07408414    -0.18460772     0             -0.12351267     0.15785047   
    316000   0.082949285   -0.18096992     0             -0.11256404     0.063174509  
    316500   0.091424824   -0.18380044     0             -0.10840504    -0.17564515   
    317000   0.10766601    -0.18708723     0             -0.098298194    0.084188133  
    317500   0.0794763     -0.18375292     0             -0.11821112     0.20839334   
    318000   0.089225462   -0.18683853     0             -0.11325688    -0.35821593   
    318500   0.088800586   -0.18037576     0             -0.10714449     0.12495559   
    319000   0.082333627   -0.1870969      0             -0.11919874    -0.36322245   
    319500   0.073154189   -0.18538525     0             -0.12505711     0.1440892    
    320000   0.094174631   -0.17921875     0             -0.10155566    -0.0097539916 
    320500   0.1185192     -0.17874118     0             -0.081001826    0.061228082  
    321000   0.09516929    -0.17839893     0             -0.099915574   -0.021666069  
    321500   0.070899896   -0.17924732     0             -0.12077822    -0.022578653  
    322000   0.060170303   -0.18576957     0             -0.13614886     0.11081014   
    322500   0.066701208   -0.18500295     0             -0.12999639     0.030544053  
    323000   0.059752289   -0.19208928     0             -0.1428133     -0.043680809  
    323500   0.088343123   -0.18105712     0             -0.10820311    -0.63562273   
    324000   0.071139833   -0.18675029     0             -0.12808333     0.028090161  
    324500   0.050462006   -0.19012131     0             -0.14850676    -0.19397266   
    325000   0.175032      -0.18621949     0             -0.041875666   -0.071053011  
    325500   0.16628305    -0.17725319     0             -0.040124369   -0.12989057   
    326000   0.12832396    -0.18122241     0             -0.075397356   -0.14064085   
    326500   0.10216534    -0.18570091     0             -0.10144812    -0.12724588   
    327000   0.090143542   -0.18391787     0             -0.1095791     -0.15055807   
    327500   0.13196489    -0.18311042     0             -0.074282787    0.062455911  
    328000   0.11228002    -0.17933857     0             -0.086744492    0.42434668   
    328500   0.11951223    -0.17970076     0             -0.081142487   -0.10730131   
    329000   0.080196032   -0.18336695     0             -0.11723161     0.050041803  
    329500   0.097650983   -0.18659145     0             -0.10606151     0.10910314   
    330000   0.1875498     -0.18439401     0             -0.029727122   -0.072642723  
    330500   0.12645599    -0.177807       0             -0.073522403   -0.019610247  
    331000   0.10913132    -0.18304926     0             -0.093051822   -0.14360462   
    331500   0.092545273   -0.18881575     0             -0.11249634    -0.24605177   
    332000   0.094975817   -0.18284065     0             -0.10451684    -0.020657933  
    332500   0.11654812    -0.18347034     0             -0.087356474    0.57692241   
    333000   0.15449073    -0.1755208      0             -0.048116769   -0.06039504   
    333500   0.13283269    -0.17430151     0             -0.064758233    0.25462216   
    334000   0.11057784    -0.17760421     0             -0.086413868    0.2176943    
    334500   0.11592632    -0.17925301     0             -0.083651935    0.0040348137 
    335000   0.10567676    -0.17755726     0             -0.090408691   -0.075746381  
    335500   0.11758927    -0.18026222     0             -0.083289754    0.055680855  
    336000   0.12053281    -0.17875428     0             -0.079354363    0.031714741  
    336500   0.10950196    -0.17549364     0             -0.085190544    0.21616619   
    337000   0.11310977    -0.17431395     0             -0.081035598   -0.26785566   
    337500   0.10864539    -0.17487536     0             -0.085278645    0.025203874  
    338000   0.1335384     -0.17168261     0             -0.061557358    0.27165232   
    338500   0.083616761   -0.1763962      0             -0.10743988    -0.22508089   
    339000   0.090932602   -0.17836198     0             -0.10337249    -0.15043431   
    339500   0.077141489   -0.18026909     0             -0.11665274    -0.18661209   
    340000   0.074780929   -0.18210832     0             -0.12043865    -0.20532411   
    340500   0.086493161   -0.18112603     0             -0.10979763    -0.24803894   
    341000   0.11320804    -0.18717856     0             -0.093819162    0.12779888   
    341500   0.11294724    -0.17726542     0             -0.084121105    0.010992617  
    342000   0.10912939    -0.185426       0             -0.095430153   -0.12120193   
    342500   0.12608344    -0.18288064     0             -0.078903276   -0.32652678   
    343000   0.14719242    -0.1785827      0             -0.057197368    0.024374473  
    343500   0.099738371   -0.18141873     0             -0.09916738     0.088288376  
    344000   0.13486443    -0.17983618     0             -0.068617381   -0.092763235  
    344500   0.11094832    -0.18448781     0             -0.092991943   -0.28554743   
    345000   0.10645943    -0.17905127     0             -0.091257256   -0.19014899   
    345500   0.091952782   -0.17824911     0             -0.10241831    -0.029038852  
    346000   0.14850721    -0.17883933     0             -0.056369734    0.02867038   
    346500   0.12619366    -0.17587625     0             -0.071807988   -0.14902267   
    347000   0.11406406    -0.17529131     0             -0.081225982    0.084301719  
    347500   0.11655952    -0.17279352     0             -0.076670257    0.069099635  
    348000   0.16612899    -0.17406182     0             -0.037060054    0.15578436   
    348500   0.15264915    -0.17469284     0             -0.048807505    0.0029746468 
    349000   0.10588148    -0.17544965     0             -0.088132259   -0.19586207   
    349500   0.10152198    -0.17769454     0             -0.093972298    0.15104903   
    350000   0.12329024    -0.17084468     0             -0.069170791   -0.32118114   
    350500   0.11757364    -0.17499271     0             -0.078033137   -0.010357106  
    351000   0.098318197   -0.17281602     0             -0.091735849    0.22768322   
    351500   0.076462984   -0.17788612     0             -0.11482931    -0.29863472   
    352000   0.088925145   -0.17937395     0             -0.10603995     0.091107809  
    352500   0.096787072   -0.178463       0             -0.098645503   -0.034892302  
    353000   0.087194672   -0.18444578     0             -0.11253886     0.17566656   
    353500   0.075726446   -0.18414135     0             -0.12169194     0.23855198   
    354000   0.10914066    -0.1870478      0             -0.097042655   -0.31560397   
    354500   0.096323903   -0.18409488     0             -0.10465935    -0.070509321  
    355000   0.080846394   -0.18630663     0             -0.11963495    -0.17883261   
    355500   0.093033467   -0.1803674      0             -0.10364539     0.25482583   
    356000   0.075125405   -0.17957415     0             -0.11762041     0.041033938  
    356500   0.061995975   -0.18711949     0             -0.13599321    -0.04773266   
    357000   0.10789478    -0.18685155     0             -0.097873854    0.16110936   
    357500   0.095301171   -0.18233051     0             -0.10373839    -0.35937727   
    358000   0.12980736    -0.17700612     0             -0.069957747    0.10150357   
    358500   0.11149732    -0.18249204     0             -0.090543424    0.061632949  
    359000   0.094767307   -0.18197565     0             -0.10382379     0.33910387   
    359500   0.09811975    -0.18261488     0             -0.10169836    -0.10558342   
    360000   0.088185878   -0.18887389     0             -0.11614955     0.11248721   
    360500   0.095873296   -0.18129871     0             -0.10223478    -0.74460135   
    361000   0.10579505    -0.18350493     0             -0.096258812   -0.218835     
    361500   0.087609132   -0.18488524     0             -0.11263653    -0.33149969   
    362000   0.14395417    -0.18655214     0             -0.0678373      0.17824764   
    362500   0.1131414     -0.1797954      0             -0.08649096    -0.088684522  
    363000   0.11746799    -0.18818584     0             -0.09131339    -0.38492917   
    363500   0.083316754   -0.18480974     0             -0.11610082     0.098795623  
    364000   0.10905184    -0.19084495     0             -0.10091306     0.22457648   
    364500   0.09827295    -0.185324       0             -0.10428115     0.44776524   
    365000   0.10030807    -0.19193626     0             -0.10921509     0.058352242  
    365500   0.13540939    -0.18784416     0             -0.076175959    0.051160877  
    366000   0.11201871    -0.19420661     0             -0.10182802     0.27481865   
    366500   0.12828411    -0.19156171     0             -0.085769521    0.036822348  
    367000   0.10538214    -0.19738314     0             -0.11047754     0.11765026   
    367500   0.10787162    -0.19416354     0             -0.10520494    -0.23742714   
    368000   0.11837964    -0.18933596     0             -0.091711697    0.31422236   
    368500   0.15266251    -0.19804751     0             -0.072151151   -0.510595     
    369000   0.11929176    -0.18694636     0             -0.0885699     -0.34279362   
    369500   0.085894163   -0.19871359     0             -0.12787916     0.067019626  
    370000   0.10723833    -0.19645234     0             -0.108016       0.42187361   
    370500   0.082480277   -0.19751972     0             -0.12950063     0.078559693  
    371000   0.088266423   -0.2004448      0             -0.12765403    -0.25201217   
    371500   0.071276025   -0.20184602     0             -0.14306675     0.40124298   
    372000   0.097411311   -0.1972691      0             -0.11693681    -0.5437375    
    372500   0.10664641    -0.1981721      0             -0.1102239      0.21681938   
    373000   0.11951303    -0.19567679     0             -0.09711785     0.068982688  
    373500   0.096454943   -0.20345043     0             -0.12390683    -0.0078567839 
    374000   0.11815403    -0.2008547      0             -0.10341649    -0.0528989    
    374500   0.12549208    -0.19912828     0             -0.095638594    0.16941104   
    375000   0.13533612    -0.19587674     0             -0.084268957    0.18492337   
    375500   0.10961617    -0.1956743      0             -0.10527702    -0.096535533  
    376000   0.13607823    -0.18879118     0             -0.076571401   -0.28667586   
    376500   0.15110964    -0.19276745     0             -0.068151703    0.1208208    
    377000   0.15487926    -0.19112433     0             -0.063399886    0.064804297  
    377500   0.18443792    -0.18260136     0             -0.030500754   -0.39601128   
    378000   0.11992132    -0.19012082     0             -0.091225178   -0.1064403    
    378500   0.11714811    -0.1867383      0             -0.090129649    0.5280071    
    379000   0.13352423    -0.18092174     0             -0.070808173   -0.010351324  
    379500   0.12314334    -0.17769834     0             -0.076145597    0.15781872   
    380000   0.11064643    -0.18473816     0             -0.093491254   -0.15803767   
    380500   0.15236342    -0.18268766     0             -0.057037962   -0.79814379   
    381000   0.1521338     -0.18288925     0             -0.05742891     0.1875337    
    381500   0.11561981    -0.17720508     0             -0.081856773    0.17806794   
    382000   0.089558268   -0.18603422     0             -0.11217811     0.0092979561 
    382500   0.13591266    -0.18596452     0             -0.073881284   -0.25769403   
    383000   0.13563845    -0.18488474     0             -0.073027639    0.13624273   
    383500   0.11917003    -0.18770822     0             -0.089432145   -0.42219367   
    384000   0.16274592    -0.17907043     0             -0.044858583    0.40426323   
[...]
   1896500   0.19957614    -0.16118621     0              0.0033984545  -1.1995814    
   1897000   0.14541115    -0.16547906     0             -0.045562691   -0.019661707  
   1897500   0.15100533    -0.17348994     0             -0.048960208    0.32564035   
   1898000   0.1832352     -0.1678804      0             -0.016771636   -0.37472041   
   1898500   0.17568931    -0.16615967     0             -0.021273781   -0.2045835    
   1899000   0.13616245    -0.16585201     0             -0.053562782   -0.060833707  
   1899500   0.22033546    -0.1667423      0              0.014961976   -0.0067185748 
   1900000   0.16618836    -0.1618896      0             -0.024838874    0.22003792   
   1900500   0.21939897    -0.167389       0              0.013542979    0.11544355   
   1901000   0.17765566    -0.17176162     0             -0.025254145    0.11984792   
   1901500   0.15160579    -0.16638611     0             -0.041361201   -0.25017943   
   1902000   0.1862535     -0.16677056     0             -0.013172688    0.30076339   
   1902500   0.17145426    -0.16927651     0             -0.027883146   -0.40489748   
   1903000   0.18181114    -0.17085359     0             -0.020919206   -0.23555084   
   1903500   0.16587397    -0.17147144     0             -0.034679975   -0.33532898   
   1904000   0.22603909    -0.16118811     0              0.025219786   -0.68551985   
   1904500   0.22944757    -0.16247567     0              0.0267431      0.070766296  
   1905000   0.19551974    -0.15874199     0              0.0024974782  -0.48635484   
   1905500   0.20526041    -0.1633202      0              0.005952119   -0.63986937   
   1906000   0.15852401    -0.1697564      0             -0.03902624     0.42685219   
   1906500   0.15408627    -0.17410861     0             -0.04703812     0.32414074   
   1907000   0.18214809    -0.16840451     0             -0.018192254    0.051224103  
   1907500   0.1998195     -0.17676527     0             -0.011979914   -0.081125029  
   1908000   0.16518994    -0.16912739     0             -0.032900025   -0.34458893   
   1908500   0.15101659    -0.17227056     0             -0.047731557    0.49957377   
   1909000   0.16660311    -0.17256716     0             -0.035174393    0.11479788   
   1909500   0.16422211    -0.17233942     0             -0.0369102      0.22391978   
   1910000   0.15410564    -0.17924064     0             -0.052154185    0.21217676   
   1910500   0.15655008    -0.17923233     0             -0.050130011    0.3696473    
   1911000   0.18475721    -0.18073764     0             -0.028373715   -0.24663242   
   1911500   0.20744055    -0.1699478      0              0.0011224146   0.14070446   
   1912000   0.18742748    -0.16170975     0             -0.0071437346  -0.25795199   
   1912500   0.13997016    -0.17367468     0             -0.058245338    0.15702536   
   1913000   0.18118736    -0.17211991     0             -0.022699938    0.10850196   
   1913500   0.21501268    -0.16920616     0              0.0081085751   0.20843911   
   1914000   0.22122493    -0.16899068     0              0.013447115    0.50432764   
   1914500   0.17646813    -0.16642347     0             -0.02089531    -0.043844192  
   1915000   0.18565679    -0.16627094     0             -0.013165152   -0.38951944   
   1915500   0.17574874    -0.17134099     0             -0.026406098   -0.044589871  
   1916000   0.17618411    -0.18009832     0             -0.034804387   -0.097569176  
   1916500   0.20447259    -0.17782706     0             -0.0092044336  -0.0046529241 
   1917000   0.23819624    -0.17024066     0              0.026192883   -0.46625963   
   1917500   0.19593103    -0.17262989     0             -0.011051248   -0.44444323   
   1918000   0.17997726    -0.17544522     0             -0.027023188   -0.34398615   
   1918500   0.1939928     -0.17483751     0             -0.014857257    0.066623862  
   1919000   0.15776633    -0.17784584     0             -0.047740511    0.40250466   
   1919500   0.16346055    -0.16523578     0             -0.030434596    0.30042944   
   1920000   0.19187965    -0.17281404     0             -0.014576446    0.24284117   
   1920500   0.14956946    -0.17798239     0             -0.054636782   -0.06115901   
   1921000   0.133597      -0.17638701     0             -0.066213435    0.047463854  
   1921500   0.14055458    -0.16523155     0             -0.049320258    0.17358874   
   1922000   0.17531125    -0.17438775     0             -0.029813635   -0.4463174    
   1922500   0.13826571    -0.17145471     0             -0.057430982   -0.1024695    
   1923000   0.18842984    -0.17636929     0             -0.020976661   -0.60067381   
   1923500   0.16081439    -0.17377009     0             -0.041151117   -0.017139817  
   1924000   0.16408648    -0.17436136     0             -0.03904399     0.3040113    
   1924500   0.15409718    -0.1761702      0             -0.049090711   -0.31400525   
   1925000   0.16970544    -0.18034778     0             -0.040396617    0.31137894   
   1925500   0.2195838     -0.17516825     0              0.005916152    0.1045985    
   1926000   0.16053487    -0.17419136     0             -0.041802899   -0.3417766    
   1926500   0.12923068    -0.18307947     0             -0.076506662    0.21419953   
   1927000   0.15108039    -0.18196693     0             -0.057375313   -0.13401903   
   1927500   0.1423149     -0.18570684     0             -0.06834386    -0.055903852  
   1928000   0.17306667    -0.1791742      0             -0.036451123    0.077422368  
   1928500   0.19587665    -0.17975766     0             -0.018223852    0.26064786   
   1929000   0.19181482    -0.1820793      0             -0.023895172   -0.14432496   
   1929500   0.13735429    -0.18475911     0             -0.071487008   -0.039651807  
   1930000   0.13442078    -0.17631395     0             -0.065461029    0.56828643   
   1930500   0.1853802     -0.17937908     0             -0.026501397    0.49530282   
   1931000   0.15238783    -0.18482838     0             -0.05915855    -0.1482354    
   1931500   0.13711494    -0.18063532     0             -0.067560598    0.4395758    
   1932000   0.20481578    -0.18510116     0             -0.016195515    0.37683873   
   1932500   0.14467764    -0.18739998     0             -0.068088521   -0.2116018    
   1933000   0.12362163    -0.18985156     0             -0.087904379   -0.056772708  
   1933500   0.11888967    -0.18886315     0             -0.090818281   -0.33861776   
   1934000   0.17191463    -0.188426       0             -0.046652981   -0.25105071   
   1934500   0.16958219    -0.18975758     0             -0.049908055    0.058090579  
   1935000   0.17234225    -0.18496943     0             -0.042843766   -0.22336701   
   1935500   0.14877359    -0.18400951     0             -0.061320234    0.19300311   
   1936000   0.12205108    -0.1922034      0             -0.09155141     0.099032899  
   1936500   0.16722411    -0.19067445     0             -0.05276957     0.50278925   
   1937000   0.18982503    -0.18174257     0             -0.025199359    0.22630041   
   1937500   0.15887759    -0.18561778     0             -0.054596035    0.14978867   
   1938000   0.16216469    -0.18162065     0             -0.047888131   -0.72656904   
   1938500   0.1897916     -0.18171451     0             -0.025198875   -0.16698      
   1939000   0.1668835     -0.1810723      0             -0.043448309    0.38807359   
   1939500   0.11774404    -0.18272932     0             -0.08562922    -0.36520474   
   1940000   0.13588514    -0.18615568     0             -0.074095137    0.18707466   
   1940500   0.13903125    -0.18719264     0             -0.072537592   -0.42140752   
   1941000   0.12610238    -0.18825874     0             -0.084265755   -0.16289163   
   1941500   0.14690939    -0.18882152     0             -0.067669596    0.31944721   
   1942000   0.14397394    -0.18514166     0             -0.066410519    0.40362989   
   1942500   0.11540491    -0.18478076     0             -0.08960967     0.16348553   
   1943000   0.1285584     -0.18858648     0             -0.082568094   -0.37074551   
   1943500   0.1274525     -0.19077518     0             -0.085668789    0.87155581   
   1944000   0.20325458    -0.18482922     0             -0.01721105    -0.37597403   
   1944500   0.18727351    -0.18924913     0             -0.034810092   -0.25402495   
   1945000   0.18815579    -0.18007247     0             -0.024905829   -0.078971903  
   1945500   0.16791428    -0.17683268     0             -0.038358634    0.25861955   
   1946000   0.14660905    -0.17840335     0             -0.057499109    0.083017073  
   1946500   0.14163437    -0.17487174     0             -0.058069976    0.068564752  
   1947000   0.20052672    -0.16352672     0              0.0018418615  -0.24964346   
   1947500   0.16118019    -0.16955412     0             -0.036633481    0.44741336   
   1948000   0.13085689    -0.17413952     0             -0.066225629    0.065028884  
   1948500   0.1206421     -0.17630646     0             -0.076816412   -0.22297108   
   1949000   0.11479131    -0.1802724      0             -0.085607323   -0.1888856    
   1949500   0.10722085    -0.18772757     0             -0.099305637   -0.16026983   
   1950000   0.12787752    -0.19432174     0             -0.088864848    0.10366679   
   1950500   0.19170432    -0.18616894     0             -0.028075934    0.39176719   
   1951000   0.2049303     -0.17572178     0             -0.006721698   -0.084243338  
   1951500   0.1665428     -0.17995068     0             -0.042607656   -0.10865029   
   1952000   0.16680569    -0.1786317      0             -0.041071877    0.55202009   
   1952500   0.17054958    -0.17952169     0             -0.03887439    -0.13572641   
   1953000   0.17776257    -0.18193539     0             -0.035339745   -0.049699413  
   1953500   0.13762893    -0.18406426     0             -0.070565663    0.28217003   
   1954000   0.19661504    -0.17870789     0             -0.016565162    0.49187146   
   1954500   0.19195271    -0.17658899     0             -0.018291153    0.016152694  
   1955000   0.16044727    -0.18292543     0             -0.050609212    0.25049419   
   1955500   0.16964903    -0.17903461     0             -0.039129961   -0.45711401   
   1956000   0.14018555    -0.18044556     0             -0.064838597   -0.24436324   
   1956500   0.12260773    -0.18368586     0             -0.082574813    0.11357056   
   1957000   0.15281976    -0.18112096     0             -0.055094934   -0.37720544   
   1957500   0.1663029     -0.17895316     0             -0.041807972   -0.25315918   
   1958000   0.19701175    -0.18479844     0             -0.022328559    0.078840105  
   1958500   0.15354585    -0.17266862     0             -0.046043797   -0.41329229   
   1959000   0.1963422     -0.17775569     0             -0.015837964   -0.23263975   
   1959500   0.21182105    -0.17869076     0             -0.0040080706  -0.38146114   
   1960000   0.1725422     -0.17478211     0             -0.032491551    0.25510877   
   1960500   0.16058952    -0.16985361     0             -0.037420076   -0.29467944   
   1961000   0.18325582    -0.17712039     0             -0.02599462    -0.26226506   
   1961500   0.22108509    -0.17820448     0              0.0041179937   0.36392288   
   1962000   0.18530582    -0.16981308     0             -0.01699673    -0.08687924   
   1962500   0.19331576    -0.17234371     0             -0.012921795   -0.29754893   
   1963000   0.1537092     -0.17365224     0             -0.046892714   -0.069593635  
   1963500   0.16808739    -0.17892136     0             -0.040304546    0.20747686   
   1964000   0.1445325     -0.17998049     0             -0.060788725   -0.34299864   
   1964500   0.21477898    -0.18092838     0             -0.0038063753   0.20733216   
   1965000   0.14366347    -0.17689429     0             -0.058419192    0.028607071  
   1965500   0.19939378    -0.17180081     0             -0.0073665317  -0.36975697   
   1966000   0.2281739     -0.16377069     0              0.024397724    0.016229262  
   1966500   0.22643318    -0.16200206     0              0.024730832    0.27292628   
   1967000   0.19964912    -0.15905828     0              0.0055865762   0.32500944   
   1967500   0.15022411    -0.16641931     0             -0.042533829   -0.043835847  
   1968000   0.16563831    -0.17086779     0             -0.034270673    0.14007237   
   1968500   0.17925157    -0.16636712     0             -0.018543538   -0.32923562   
   1969000   0.14602025    -0.17141335     0             -0.050994675    0.40150152   
   1969500   0.19055751    -0.16839282     0             -0.011245556   -0.5222606    
   1970000   0.19339087    -0.16952582     0             -0.010041969    0.076371124  
   1970500   0.17124743    -0.17470244     0             -0.033479639    0.66345406   
   1971000   0.21314756    -0.16803348     0              0.0077431369   0.12896346   
   1971500   0.16591201    -0.17129715     0             -0.034474317   -0.023614636  
   1972000   0.16249167    -0.1688881      0             -0.034885924   -0.21291328   
   1972500   0.14818541    -0.16987791     0             -0.04767369     0.3104741    
   1973000   0.17673061    -0.17195913     0             -0.026214511    0.36692785   
   1973500   0.14800774    -0.17170231     0             -0.049644615    0.34172162   
   1974000   0.14551099    -0.18101446     0             -0.061015752    0.083364573  
   1974500   0.1528289     -0.17704176     0             -0.051008187   -0.50243924   
   1975000   0.16545983    -0.17549492     0             -0.039044991    0.18422576   
   1975500   0.15492668    -0.17663253     0             -0.048868985   -0.72180058   
   1976000   0.23081502    -0.17858842     0              0.011758049    0.20024059   
   1976500   0.21531627    -0.16747417     0              0.010090926    0.17265483   
   1977000   0.19183488    -0.16983403     0             -0.011633352   -0.4892679    
   1977500   0.14008762    -0.17355895     0             -0.058032752   -0.21165947   
   1978000   0.17936046    -0.17542729     0             -0.027513914    0.76024854   
   1978500   0.14023386    -0.17450181     0             -0.058855005    0.11001738   
   1979000   0.15810716    -0.17852232     0             -0.048135928   -0.32365034   
   1979500   0.19161644    -0.17255005     0             -0.014529513   -0.014842223  
   1980000   0.16018545    -0.17527906     0             -0.043178752    0.015272989  
   1980500   0.15307145    -0.17684716     0             -0.050613558   -0.18404158   
   1981000   0.16439469    -0.17648586     0             -0.040914317    0.055044818  
   1981500   0.13773714    -0.17340439     0             -0.059816558    0.50372824   
   1982000   0.17081946    -0.16861382     0             -0.027743956   -0.14836475   
   1982500   0.16858918    -0.17385084     0             -0.034820224   -0.33146584   
   1983000   0.16777045    -0.17121273     0             -0.032857295    0.68694635   
   1983500   0.13784303    -0.17501344     0             -0.061338279    0.41910003   
   1984000   0.13108992    -0.1794555      0             -0.071349444    0.045391119  
   1984500   0.16819588    -0.18030953     0             -0.041603255   -0.043536023  
   1985000   0.12066651    -0.18077707     0             -0.081266894   -0.46522588   
   1985500   0.12160316    -0.18305007     0             -0.082767467    0.43582495   
   1986000   0.17066596    -0.18362753     0             -0.042884251    0.54942385   
   1986500   0.17112083    -0.18111736     0             -0.039998964   -0.36612388   
   1987000   0.17277139    -0.18334743     0             -0.040867865   -0.080344915  
   1987500   0.15677852    -0.18315791     0             -0.053867206    0.11204149   
   1988000   0.24158644    -0.17653868     0              0.022690663   -0.11092839   
   1988500   0.19044682    -0.18129031     0             -0.024234333    0.10651127   
   1989000   0.15142024    -0.17542429     0             -0.050552403    0.069798518  
   1989500   0.15238578    -0.18283183     0             -0.057163688   -0.17765885   
   1990000   0.14320799    -0.18565576     0             -0.067556271   -0.17409163   
   1990500   0.13376472    -0.18435542     0             -0.074043532    0.6978435    
   1991000   0.12891717    -0.18586394     0             -0.07954968    -0.07752087   
   1991500   0.13845707    -0.17746341     0             -0.063281875   -0.012841279  
   1992000   0.13580203    -0.18542583     0             -0.073433824   -0.22738672   
   1992500   0.15471219    -0.19282008     0             -0.065233413    0.061447931  
   1993000   0.14774782    -0.18535272     0             -0.063509369    0.4068665    
   1993500   0.1774102     -0.18441375     0             -0.038108695    0.046282814  
   1994000   0.13960974    -0.18160281     0             -0.066470702   -0.084385792  
   1994500   0.16317191    -0.18308013     0             -0.048516982   -0.0059908878 
   1995000   0.13991809    -0.18236543     0             -0.066979032    0.056050394  
   1995500   0.1183694     -0.19341364     0             -0.095797823   -0.13988005   
   1996000   0.1905831     -0.18505163     0             -0.027883263    0.12645363   
   1996500   0.20499605    -0.17575557     0             -0.0067012588   0.37435729   
   1997000   0.16004017    -0.18132523     0             -0.049344731    0.14090032   
   1997500   0.17221196    -0.17608528     0             -0.034067057   -0.19280296   
   1998000   0.20866273    -0.17223085     0             -0.00015273565  0.039146998  
   1998500   0.18256238    -0.17466598     0             -0.024112073    0.14627907   
   1999000   0.16357632    -0.17123836     0             -0.036341707   -0.37442697   
   1999500   0.17351377    -0.17937067     0             -0.036278881   -0.048204411  
   2000000   0.15114128    -0.17763487     0             -0.052993028   -0.11880517   
   2000001   0.15112176    -0.1759407      0             -0.051314958   -0.048993851  
Loop time of 162.815 on 8 procs for 1000000 steps with 1520 atoms

Performance: 530663.073 tau/day, 6141.934 timesteps/s, 9.336 Matom-step/s
90.7% CPU use with 8 MPI tasks x 1 OpenMP threads

MPI task timing breakdown:
Section |  min time  |  avg time  |  max time  |%varavg| %total
---------------------------------------------------------------
Pair    | 14.41      | 14.956     | 15.322     |   7.9 |  9.19
Bond    | 0.06573    | 0.072091   | 0.077557   |   1.2 |  0.04
Neigh   | 3.916      | 3.9188     | 3.9227     |   0.1 |  2.41
Comm    | 24.949     | 25.476     | 26.16      |   7.3 | 15.65
Output  | 0.61495    | 0.68855    | 0.76433    |   5.7 |  0.42
Modify  | 111.68     | 112.31     | 112.83     |   3.8 | 68.98
Other   |            | 5.392      |            |       |  3.31

Nlocal:            190 ave         214 max         143 min
Histogram: 1 0 0 1 0 0 1 2 1 2
Nghost:        643.625 ave         686 max         628 min
Histogram: 2 4 0 0 0 1 0 0 0 1
Neighs:              0 ave           0 max           0 min
Histogram: 8 0 0 0 0 0 0 0 0 0

Total # of neighbors = 0
Ave neighs/atom = 0
Ave special neighs/atom = 2.0657895
Neighbor list builds = 7179
Dangerous builds = 0

# Write data for deformation

write_data data.hydrogel
System init for write_data ...
WARNING: Using a manybody potential with bonds/angles/dihedrals and special_bond exclusions (src/pair.cpp:243)
Hybrid pair style last /omp style sw/omp
Last active /omp style is pair_style sw/omp
WARNING: More than one fix rigid command (src/RIGID/fix_rigid_small.cpp:529)
WARNING: More than one fix rigid command (src/RIGID/fix_rigid_small.cpp:529)
WARNING: One or more atoms are time integrated more than once (src/modify.cpp:296)
Total wall time: 0:05:25
