LAMMPS (29 Aug 2024)
OMP_NUM_THREADS environment is not set. Defaulting to 1 thread. (src/comm.cpp:98)
  using 1 OpenMP thread(s) per MPI task
package omp 0
using multi-threaded neighbor list subroutines
# Input Script of lammps for assembly simulation of polimeric network.

# Fco. Vazquez and Felipe Benavides

# Initialization
units lj
dimension 3
boundary p p p

# Styles of atoms and that stuff
atom_style bond
bond_style zero nocoeff
#pair_style hybrid/overlay/omp zero 0.0 lj/cut/omp 1.12 table/omp linear 5000000 threebody/table
pair_style hybrid/overlay/omp zero 0.0 lj/cut/omp 1.12 sw/omp threebody off threebody/table
newton on

# Create simulaiton box
region simulation_box block -$L $L -$L $L -$L $L
region simulation_box block -6.932675 $L -$L $L -$L $L
region simulation_box block -6.932675 6.932675 -$L $L -$L $L
region simulation_box block -6.932675 6.932675 -6.932675 $L -$L $L
region simulation_box block -6.932675 6.932675 -6.932675 6.932675 -$L $L
region simulation_box block -6.932675 6.932675 -6.932675 6.932675 -6.932675 $L
region simulation_box block -6.932675 6.932675 -6.932675 6.932675 -6.932675 6.932675
# N-atom-types region-ID keyword value Is necesesary the extra/special/per/atom (# of special neighbors per atom)
create_box 4 simulation_box     bond/types 1     extra/bond/per/atom 4     extra/special/per/atom 5
Created orthogonal box = (-6.932675 -6.932675 -6.932675) to (6.932675 6.932675 6.932675)
  2 by 1 by 2 MPI processor grid

# Atom types
mass 1 1.0      # CL
mass 2 1.0      # MO
mass 3 0.5      # PA
mass 4 0.5      # PB

# Coefficients
include potential.in
# Script with the pair-wise interaction and bonds between particles

bond_coeff * nocoeff
pair_coeff 1 3 zero
pair_coeff 1 4 zero
pair_coeff 2 3 zero
pair_coeff 2 4 zero
pair_coeff 3 3 zero
pair_coeff 1 1 lj/cut/omp 1.0 1.0 1.12
pair_coeff 2 2 lj/cut/omp 1.0 1.0 1.12
pair_coeff 1 2 lj/cut/omp 1.0 1.0 1.12
pair_coeff 3 4 sw/omp sysFiles/patchyPot.sw NULL NULL PA PB
  disabling sw potential three-body terms
pair_coeff 4 4 sw/omp sysFiles/patchyPot.sw NULL NULL PA PB
pair_coeff * * threebody/table swapMech.3b NULL NULL PA PB
pair_modify pair lj/cut/omp shift yes


# Molecules
include molecules.in
# Script with all molecule information and create groups for computes

# Read the molecule information
molecule CL sysFiles/molecule.patchy.CL
Read molecule template CL:
# Patchy Cross-Linker
  1 molecules
  0 fragments
  5 atoms with max type 3
  4 bonds with max type 1
  0 angles with max type 0
  0 dihedrals with max type 0
  0 impropers with max type 0
molecule MO sysFiles/molecule.patchy.MO
Read molecule template MO:
# Patchy Monomer
  1 molecules
  0 fragments
  3 atoms with max type 4
  2 bonds with max type 1
  0 angles with max type 0
  0 dihedrals with max type 0
  0 impropers with max type 0

# Introduce the molecules
# ID style args keyword arg
region spawn_box block -$L $L -$L $L -$L $L
region spawn_box block -6.932675 $L -$L $L -$L $L
region spawn_box block -6.932675 6.932675 -$L $L -$L $L
region spawn_box block -6.932675 6.932675 -6.932675 $L -$L $L
region spawn_box block -6.932675 6.932675 -6.932675 6.932675 -$L $L
region spawn_box block -6.932675 6.932675 -6.932675 6.932675 -6.932675 $L
region spawn_box block -6.932675 6.932675 -6.932675 6.932675 -6.932675 6.932675

# create_atoms type style args keyword values
# style_random: N seed region-ID
# keyword_mol: template-ID seed
# keyword_overlap: overlap value = only insert if at least this distance from all existing atoms
# keyword_maxtry: maxtry value = number of attempts to insert a particle before failure
create_atoms 0 random ${NCL} ${seed1} spawn_box mol CL ${seed1} overlap 1.0 maxtry 5000 #xls
create_atoms 0 random 10 ${seed1} spawn_box mol CL ${seed1} overlap 1.0 maxtry 5000 
create_atoms 0 random 10 1234 spawn_box mol CL ${seed1} overlap 1.0 maxtry 5000 
create_atoms 0 random 10 1234 spawn_box mol CL 1234 overlap 1.0 maxtry 5000 
Created 50 atoms
  using lattice units in orthogonal box = (-6.932675 -6.932675 -6.932675) to (6.932675 6.932675 6.932675)
  create_atoms CPU = 0.001 seconds
create_atoms 0 random ${NMO} ${seed2} spawn_box mol MO ${seed2} overlap 1.0 maxtry 5000 #mon
create_atoms 0 random 490 ${seed2} spawn_box mol MO ${seed2} overlap 1.0 maxtry 5000 
create_atoms 0 random 490 4321 spawn_box mol MO ${seed2} overlap 1.0 maxtry 5000 
create_atoms 0 random 490 4321 spawn_box mol MO 4321 overlap 1.0 maxtry 5000 
Created 1470 atoms
  using lattice units in orthogonal box = (-6.932675 -6.932675 -6.932675) to (6.932675 6.932675 6.932675)
  create_atoms CPU = 0.165 seconds

# Create patchy particles
group CrossLinker type 1 3
50 atoms in group CrossLinker
group Monomer type 2 4
1470 atoms in group Monomer
group Patches type 3 4
1020 atoms in group Patches
group CL type 1
10 atoms in group CL
group MO type 2
490 atoms in group MO
group PA type 3
40 atoms in group PA
group CM type 1 2
500 atoms in group CM

# Fix rigid bodies
fix frCL CrossLinker rigid/small/omp molecule
  create bodies CPU = 0.000 seconds
  10 rigid bodies with 50 atoms
  0.46400431 = max distance from body owner to body atom
fix frMO Monomer rigid/small/omp molecule
  create bodies CPU = 0.000 seconds
  490 rigid bodies with 1470 atoms
  0.5 = max distance from body owner to body atom

# Neighbor list
neighbor 1.12 bin # extra-distance style
neigh_modify exclude molecule/intra CrossLinker
neigh_modify exclude molecule/intra Monomer

# COMPUTES

# Compute global kinetic and potential energy and temperature
compute t all temp
compute tCM CM temp
compute ep all pe
compute ek all ke
compute ekCM CM ke
compute stressVirial all pressure t ke pair
compute wcaPair all pair lj/cut/omp epair
compute patchPair all pair sw/omp epair
compute swapPair all pair threebody/table epair
compute disc CM displace/atom
compute daux CM chunk/atom type pbc yes
compute dis CM reduce/chunk daux sum c_disc[4]
#compute disM CM reduce/chunk daux sum c_disc[4]

# Energy minimization
minimize 1.0e-4 1.0e-6 1000 10000
WARNING: Using a manybody potential with bonds/angles/dihedrals and special_bond exclusions (src/pair.cpp:243)
Hybrid pair style last /omp style sw/omp
Last active /omp style is pair_style sw/omp
WARNING: More than one fix rigid command (src/RIGID/fix_rigid_small.cpp:529)
WARNING: More than one fix rigid command (src/RIGID/fix_rigid_small.cpp:529)
Neighbor list info ...
  update: every = 1 steps, delay = 0 steps, check = yes
  max neighbors/atom: 2000, page size: 100000
  master list distance cutoff = 2.24
  ghost atom cutoff = 2.24
  binsize = 1.12, bins = 13 13 13
  6 neighbor lists, perpetual/occasional/extra = 6 0 0
  (1) pair zero, perpetual, skip from (5)
      attributes: half, newton on, omp
      pair build: skip/omp
      stencil: none
      bin: none
  (2) pair lj/cut/omp, perpetual, skip from (5)
      attributes: half, newton on, omp
      pair build: skip/omp
      stencil: none
      bin: none
  (3) pair sw/omp, perpetual, skip trim from (5)
      attributes: half, newton on, omp, cut 1.87
      pair build: skip/trim/omp
      stencil: none
      bin: none
  (4) pair threebody/table, perpetual, skip from (6)
      attributes: full, newton on, omp, cut 1.7200000000000002
      pair build: skip/omp
      stencil: none
      bin: none
  (5) neighbor class addition, perpetual
      attributes: half, newton on, omp
      pair build: half/bin/newton/omp
      stencil: half/bin/3d
      bin: standard
  (6) neighbor class addition, perpetual
      attributes: full, newton on, omp, cut 1.7200000000000002
      pair build: full/bin/omp
      stencil: full/bin/3d
      bin: standard
WARNING: Cannot count rigid body degrees-of-freedom before bodies are fully initialized (src/RIGID/fix_rigid_small.cpp:1129)
WARNING: Cannot count rigid body degrees-of-freedom before bodies are fully initialized (src/RIGID/fix_rigid_small.cpp:1129)
WARNING: Cannot count rigid body degrees-of-freedom before bodies are fully initialized (src/RIGID/fix_rigid_small.cpp:1129)
WARNING: Cannot count rigid body degrees-of-freedom before bodies are fully initialized (src/RIGID/fix_rigid_small.cpp:1129)
WARNING: Cannot count rigid body degrees-of-freedom before bodies are fully initialized (src/RIGID/fix_rigid_small.cpp:1129)
WARNING: Cannot count rigid body degrees-of-freedom before bodies are fully initialized (src/RIGID/fix_rigid_small.cpp:1129)
Per MPI rank memory allocation (min/avg/max) = 20.01 | 20.01 | 20.02 Mbytes
   Step          Temp          E_pair         E_mol          TotEng         Press     
         0   0              0.00067516832  0              0.00067516832  0.00636608   
         1   0              0.00067516832  0              0.00067516832  0.00636608   
Loop time of 0.000248412 on 4 procs for 1 steps with 1520 atoms

97.9% CPU use with 4 MPI tasks x 1 OpenMP threads

Minimization stats:
  Stopping criterion = quadratic factors are zero
  Energy initial, next-to-last, final = 
    0.000675168319707251 0.000675168319707251 0.000675168319707251
  Force two-norm initial, final = 21.154727 21.154727
  Force max component initial, final = 6.3589627 6.3589627
  Final line search alpha, max atom move = 0.015725835 0.1
  Iterations, force evaluations = 1 2

MPI task timing breakdown:
Section |  min time  |  avg time  |  max time  |%varavg| %total
---------------------------------------------------------------
Pair    | 5.9157e-05 | 7.2759e-05 | 0.00010146 |   0.0 | 29.29
Bond    | 3.26e-07   | 4.07e-07   | 4.69e-07   |   0.0 |  0.16
Neigh   | 0          | 0          | 0          |   0.0 |  0.00
Comm    | 8.5183e-05 | 0.00011262 | 0.00012493 |   0.0 | 45.34
Output  | 0          | 0          | 0          |   0.0 |  0.00
Modify  | 6.407e-06  | 7.317e-06  | 8.479e-06  |   0.0 |  2.95
Other   |            | 5.531e-05  |            |       | 22.26

Nlocal:            380 ave         382 max         378 min
Histogram: 1 0 0 0 0 2 0 0 0 1
Nghost:        1000.75 ave        1005 max         993 min
Histogram: 1 0 0 0 0 0 0 1 1 1
Neighs:              0 ave           0 max           0 min
Histogram: 4 0 0 0 0 0 0 0 0 0

Total # of neighbors = 0
Ave neighs/atom = 0
Ave special neighs/atom = 2.0657895
Neighbor list builds = 0
Dangerous builds = 0

# DUMPS and FIXES

thermo ${sstep}
thermo 500

# Save atom positions
dump dumpID all atom ${sstep} info/dumps/assembly/patchyParticles_assembly.*.dumpf
dump dumpID all atom 500 info/dumps/assembly/patchyParticles_assembly.*.dumpf
dump_modify dumpID pbc yes # remap atoms via periodic boundary conditions

# Save global energies and temperature
group Energy empty
0 atoms in group Energy
fix fixEng Energy ave/time 1 10 10 c_t c_ep c_ek c_tCM file info/energy_assembly.fixf

group PairE1 empty
0 atoms in group PairE1
group PairE2 empty
0 atoms in group PairE2
group PairE3 empty
0 atoms in group PairE3

fix fixwca PairE1 ave/time 1 10 10 c_wcaPair file info/wcaPair_assembly.fixf
fix fixpatch PairE2 ave/time 1 10 10 c_patchPair file info/patchPair_assembly.fixf
fix fixswap PairE3 ave/time 1 10 10 c_swapPair file info/swapPair_assembly.fixf

# Save Atom displacement
group Displ empty
0 atoms in group Displ
fix fixDispl Displ ave/time 1 ${Nave} ${Nave} c_dis[1] c_dis[2] c_dis[3] c_dis[4] file info/cmdisplacement_assembly.fixf
fix fixDispl Displ ave/time 1 100000 ${Nave} c_dis[1] c_dis[2] c_dis[3] c_dis[4] file info/cmdisplacement_assembly.fixf
fix fixDispl Displ ave/time 1 100000 100000 c_dis[1] c_dis[2] c_dis[3] c_dis[4] file info/cmdisplacement_assembly.fixf

# Save Stress tensor
group Stress empty
0 atoms in group Stress
fix fixStress5 Stress ave/time 1 ${Nave} ${Nave} c_stressVirial[*] file info/stressVirial_assembly.fixf
fix fixStress5 Stress ave/time 1 100000 ${Nave} c_stressVirial[*] file info/stressVirial_assembly.fixf
fix fixStress5 Stress ave/time 1 100000 100000 c_stressVirial[*] file info/stressVirial_assembly.fixf

# RUN SIMULATION

# Brownian Dynamics using Langevin Thermostat

# Set the time integrator
fix VelVerlet all nve/omp # Use Velocity Verlet integrator
timestep ${tstep}
timestep 0.001

# First elevate the temperature
fix ThermoLng all langevin 0.0 ${temp} ${damp} 12345 # Brownian Dynamics: langevin + nve
fix ThermoLng all langevin 0.0 0.05 ${damp} 12345 
fix ThermoLng all langevin 0.0 0.05 10 12345 
run 1000000
WARNING: Using a manybody potential with bonds/angles/dihedrals and special_bond exclusions (src/pair.cpp:243)
Hybrid pair style last /omp style sw/omp
Last active /omp style is pair_style sw/omp
WARNING: More than one fix rigid command (src/RIGID/fix_rigid_small.cpp:529)
WARNING: More than one fix rigid command (src/RIGID/fix_rigid_small.cpp:529)
WARNING: One or more atoms are time integrated more than once (src/modify.cpp:296)
WARNING: Computing temperature of portions of rigid bodies (src/RIGID/fix_rigid_small.cpp:1178)
WARNING: Computing temperature of portions of rigid bodies (src/RIGID/fix_rigid_small.cpp:1178)
Per MPI rank memory allocation (min/avg/max) = 20.32 | 20.33 | 20.33 Mbytes
   Step          Temp          E_pair         E_mol          TotEng         Press     
         1   0              0.00067516832  0              0.00067516832  0.021123967  
       500   0.00074257336  0              0              0.00061237875 -0.00042982662
      1000   0.00067585001  7.7155075e-07  0              0.00055812549 -0.0018214235 
      1500   0.00061176639  3.8574602e-06  0              0.00050836349 -0.0036068441 
      2000   0.00056568885  0              0              0.00046650722 -0.0031528295 
      2500   0.0005240934  -2.0224924e-11  0              0.00043220463 -0.0090956174 
      3000   0.00052130485 -7.4663555e-05  0              0.00035524146 -0.0032527274 
      3500   0.0013652627  -0.00097392268  0              0.00015196997  0.0051187942 
      4000   0.0012309842  -0.0013092098   0             -0.00029405275 -0.018106697  
      4500   0.0035604954  -0.0039394244   0             -0.0010031868   0.00985059   
      5000   0.0029862383  -0.0043207916   0             -0.0018581274  -0.017678499  
      5500   0.0028340576  -0.0048817184   0             -0.0025445531  -0.010670513  
      6000   0.0032678881  -0.0058588073   0             -0.0031638746   0.00032670533
      6500   0.0034430789  -0.0067634455   0             -0.0039240379   0.011365002  
      7000   0.0026031835  -0.0067064466   0             -0.0045596766  -0.0084903118 
      7500   0.0037860889  -0.0084053161   0             -0.0052830381  -0.00061989856
      8000   0.0026578829  -0.0080916724   0             -0.0058997933   0.0067973709 
      8500   0.0029764781  -0.0085627546   0             -0.0061081393   0.011140665  
      9000   0.0038064505  -0.010006511    0             -0.0068674417   0.013733118  
      9500   0.0027116798  -0.010460134    0             -0.0082238904   0.0037411882 
     10000   0.0026282559  -0.011103878    0             -0.0089364319   0.00075886529
     10500   0.0023671468  -0.010130694    0             -0.0081785762  -0.020118357  
     11000   0.0027296237  -0.011639772    0             -0.0093887299  -0.0011889301 
     11500   0.0039300422  -0.01235945     0             -0.0091184584   0.00992679   
     12000   0.0054594421  -0.011900014    0             -0.0073977706  -0.017737639  
     12500   0.0071989469  -0.014457128    0             -0.0085203652  -0.0054585075 
     13000   0.0072645831  -0.01569287     0             -0.0097019789  -0.0050883044 
     13500   0.0068005751  -0.016846127    0             -0.01123789    -0.012302422  
     14000   0.0074789693  -0.018029016    0             -0.011861327    0.013221599  
     14500   0.0074361498  -0.019362109    0             -0.013229731    0.01209543   
     15000   0.0080447186  -0.019366262    0             -0.012732015    0.023401342  
     15500   0.0064910817  -0.01932163     0             -0.013968623    0.018135246  
     16000   0.0067166197  -0.020658094    0             -0.015119092    0.007543755  
     16500   0.0065483428  -0.021591572    0             -0.016191343    0.00092314789
     17000   0.0063911141  -0.022665665    0             -0.017395098    0.012088207  
     17500   0.0064762355  -0.024081047    0             -0.018740283    0.027175172  
     18000   0.0098032324  -0.027640596    0             -0.019556154   -0.0059722223 
     18500   0.0098439773  -0.030096199    0             -0.021978156   -0.020586635  
     19000   0.0097065401  -0.030537517    0             -0.022532814   -0.06658363   
     19500   0.011346795   -0.031397906    0             -0.022040532    0.035881442  
     20000   0.012558698   -0.034489531    0             -0.024132737    0.02653853   
     20500   0.011710358   -0.036153675    0             -0.026496482    0.017334208  
     21000   0.011669336   -0.038494443    0             -0.028871079   -0.040258257  
     21500   0.010206956   -0.038771347    0             -0.030353966   -0.025424789  
     22000   0.011998854   -0.041584765    0             -0.031689658    0.072320497  
     22500   0.01588625    -0.044852115    0             -0.031751184   -0.00096114412
     23000   0.018001549   -0.049835904    0             -0.034990547   -0.018009864  
     23500   0.020476021   -0.052949934    0             -0.036063952   -0.0032415326 
     24000   0.024440505   -0.055251747    0             -0.035096369   -0.04296989   
     24500   0.024359397   -0.059321309    0             -0.039232819    0.0065202044 
     25000   0.027982159   -0.062475982    0             -0.039399905    0.00051909337
     25500   0.027354514   -0.065298535    0             -0.042740059   -0.035383961  
     26000   0.027757518   -0.06822881     0             -0.045337989    0.024424182  
     26500   0.032728542   -0.071261373    0             -0.044271092   -0.0469644    
     27000   0.030007684   -0.072812604    0             -0.048066135    0.038298739  
     27500   0.030541499   -0.076750364    0             -0.051563674   -0.040266271  
     28000   0.033528021   -0.08197454     0             -0.054324951    0.015460851  
     28500   0.027438792   -0.080822932    0             -0.058194955    0.047101394  
     29000   0.028460985   -0.08641284     0             -0.06294189     0.040691845  
     29500   0.030782542   -0.091626529    0             -0.066241058   -0.032681156  
     30000   0.035631529   -0.093766916    0             -0.064382625   -0.020497548  
     30500   0.03701416    -0.096723178    0             -0.066198671    0.011684053  
     31000   0.041401708   -0.10036574     0             -0.066222945    0.042500258  
     31500   0.048293188   -0.099754193    0             -0.059928199    0.034355842  
     32000   0.056177449   -0.10196828     0             -0.055640361   -0.011399612  
     32500   0.057612619   -0.1081608      0             -0.060649344    0.037725762  
     33000   0.050542      -0.10850315     0             -0.066822631   -0.031184445  
     33500   0.054272353   -0.11483738     0             -0.070080543   -0.025952196  
     34000   0.054051338   -0.11714233     0             -0.072567755    0.016560191  
     34500   0.058945579   -0.12352283     0             -0.074912114   -0.041566318  
     35000   0.061943745   -0.12905268     0             -0.077969465    0.061900676  
     35500   0.064158733   -0.13080195     0             -0.077892101    0.024312015  
     36000   0.068218558   -0.13388858     0             -0.077630712    0.015419456  
     36500   0.070738169   -0.13628194     0             -0.077946216   -0.078613366  
     37000   0.071838451   -0.13944756     0             -0.08020447     0.079179415  
     37500   0.068766951   -0.14270508     0             -0.08599497     0.051406601  
     38000   0.069381119   -0.14474807     0             -0.087531468    0.0053797941 
     38500   0.069456961   -0.15202455     0             -0.094745401    0.00038468989
     39000   0.079049958   -0.15280639     0             -0.087616183    0.081531528  
     39500   0.092985124   -0.15494207     0             -0.078259932    0.015107969  
     40000   0.11065502    -0.15653335     0             -0.065279366   -0.014713372  
     40500   0.11175466    -0.15012623     0             -0.057965402    0.0049429598 
     41000   0.12273343    -0.15983466     0             -0.058619949    0.04490345   
     41500   0.11951092    -0.15853041     0             -0.059973216    0.022566814  
     42000   0.12121293    -0.16439263     0             -0.064431831    0.0013936195 
     42500   0.11739739    -0.16327908     0             -0.066464851    0.11408161   
     43000   0.13472266    -0.16343659     0             -0.052334708   -0.075464797  
     43500   0.13421324    -0.16321682     0             -0.052535049   -0.089846173  
     44000   0.14834397    -0.17161782     0             -0.049282838    0.02359259   
     44500   0.15684157    -0.1684311      0             -0.039088393   -0.028561039  
     45000   0.16434253    -0.17546717     0             -0.03993864     0.06423495   
     45500   0.15725429    -0.17785921     0             -0.04817615     0.026042339  
     46000   0.18498641    -0.1791741      0             -0.026621161    0.022490673  
     46500   0.18620344    -0.1742972      0             -0.020740611   -0.11050419   
     47000   0.17880888    -0.1725406      0             -0.025082093   -0.030879798  
     47500   0.18798575    -0.17694787     0             -0.02192146    -0.0081171127 
     48000   0.1851388     -0.17536352     0             -0.022684911   -0.1709657    
     48500   0.18966181    -0.17601173     0             -0.019603126    0.18605465   
     49000   0.18665375    -0.17919761     0             -0.025269664   -0.13368038   
     49500   0.18056668    -0.17500671     0             -0.026098591    0.11612669   
     50000   0.19615754    -0.17648961     0             -0.014724168   -0.15959217   
     50500   0.20278582    -0.17819117     0             -0.010959575   -0.037424139  
     51000   0.20912215    -0.17124423     0              0.0012127569   0.0018632295 
     51500   0.21086134    -0.17687058     0             -0.002979337    0.24045406   
     52000   0.21052757    -0.16870509     0              0.00491091    -0.059647332  
     52500   0.20631417    -0.17301267     0             -0.0028713447   0.14562148   
     53000   0.20870915    -0.17328687     0             -0.0011704721   0.014149949  
     53500   0.20313251    -0.1731947      0             -0.0056772009   0.052836421  
     54000   0.20131195    -0.176729       0             -0.010712862    0.19806514   
     54500   0.19182192    -0.17403197     0             -0.015841985    0.0075186379 
     55000   0.18759164    -0.17824451     0             -0.023543115    0.12524824   
     55500   0.18552776    -0.18180485     0             -0.028805483   -0.055867931  
     56000   0.18207025    -0.1816124      0             -0.031464338    0.008943693  
     56500   0.18357241    -0.18492811     0             -0.033541261   -0.029691059  
     57000   0.18245468    -0.18513716     0             -0.034672066    0.075762438  
     57500   0.18963042    -0.1896386      0             -0.033255885    0.046553614  
     58000   0.18499508    -0.1910159      0             -0.038455811    0.041278447  
     58500   0.17361364    -0.18501975     0             -0.041845602   -0.055174212  
     59000   0.17378674    -0.19086367     0             -0.047546782    0.16865378   
     59500   0.17948651    -0.19463349     0             -0.046616155    0.071733225  
     60000   0.17232933    -0.19439071     0             -0.052275705    0.079423463  
     60500   0.1773938     -0.19236739     0             -0.04607586     0.001476574  
     61000   0.17857795    -0.19668621     0             -0.049418141   -0.043252004  
     61500   0.17582288    -0.19568453     0             -0.050688491   -0.02184632   
     62000   0.17311604    -0.18809818     0             -0.045334397    0.014921883  
     62500   0.17525399    -0.1934584      0             -0.048931507   -0.035018844  
     63000   0.16937528    -0.19959229     0             -0.059913401    0.089964755  
     63500   0.17705938    -0.1931497      0             -0.047133952   -0.075909995  
     64000   0.18334707    -0.18909718     0             -0.03789616     0.22795933   
     64500   0.18250787    -0.19160305     0             -0.041094099    0.11497786   
     65000   0.20537938    -0.18994849     0             -0.02057806    -0.020362142  
     65500   0.20701055    -0.18635896     0             -0.015643358   -0.019526874  
     66000   0.2029518     -0.19163852     0             -0.024270049    0.072773201  
     66500   0.19916282    -0.18498682     0             -0.020743008   -0.028585064  
     67000   0.20159702    -0.19115896     0             -0.02490774     0.11596919   
     67500   0.2074015     -0.18555079     0             -0.014512778   -0.023657891  
     68000   0.19565868    -0.18473127     0             -0.02337722    -0.032283509  
     68500   0.20710463    -0.18919432     0             -0.018401125   -0.0097754167 
     69000   0.21443409    -0.19056946     0             -0.013731874    0.088206133  
     69500   0.20833507    -0.18399113     0             -0.012183232    0.025679473  
     70000   0.20855508    -0.17683266     0             -0.0048433279  -0.018596725  
     70500   0.22137802    -0.18333976     0             -0.00077572361 -0.05398595   
     71000   0.23156607    -0.189708       0              0.0012578362   0.18317616   
     71500   0.22359403    -0.1818516      0              0.0025399189  -0.1254241    
     72000   0.23586206    -0.1784022      0              0.016106416    0.03210194   
     72500   0.23613189    -0.18407796     0              0.010653169    0.17270258   
     73000   0.23063881    -0.1781103      0              0.012090853   -0.04969372   
     73500   0.22596946    -0.18260056     0              0.0037499164   0.060166677  
     74000   0.2334141     -0.18081111     0              0.01167874    -0.016557066  
     74500   0.23141934    -0.17808219     0              0.012762643    0.078323015  
     75000   0.23076543    -0.17510661     0              0.015198955    0.065336606  
     75500   0.22096407    -0.17430159     0              0.007921083   -0.0026627761 
     76000   0.2173976     -0.17112883     0              0.0081526818   0.1535379    
     76500   0.21960041    -0.17397302     0              0.0071250853   0.035142543  
     77000   0.21779842    -0.17772182     0              0.0018902359   0.014755389  
     77500   0.21192184    -0.17185403     0              0.0029117761   0.024224944  
     78000   0.21758112    -0.16972727     0              0.0097055798   0.044475545  
     78500   0.21601176    -0.16961244     0              0.0085262092  -0.047237412  
     79000   0.20933369    -0.17202346     0              0.00060797414  0.10374565   
     79500   0.20411224    -0.17436965     0             -0.0060441901  -0.053071487  
     80000   0.2106228     -0.17760775     0             -0.0039132255  -0.030922702  
     80500   0.20738075    -0.17791583     0             -0.0068949325   0.052445353  
     81000   0.20771346    -0.18035457     0             -0.0090592946   0.0072608512 
     81500   0.20884832    -0.18137436     0             -0.0091431979   0.044641549  
     82000   0.21744512    -0.18671852     0             -0.0073978275   0.017951655  
     82500   0.21099095    -0.17984257     0             -0.0058444341   0.069685824  
     83000   0.21022072    -0.18382257     0             -0.01045963     0.013191694  
     83500   0.20369437    -0.17647548     0             -0.0084946333  -0.049693694  
     84000   0.19943282    -0.17811956     0             -0.013653086    0.11362697   
     84500   0.19813866    -0.1790308      0             -0.015631582   -0.081941395  
     85000   0.20248712    -0.17703846     0             -0.010053198    0.0048555422 
     85500   0.20438809    -0.17965828     0             -0.01110534     0.010606859  
     86000   0.19553127    -0.17958102     0             -0.018332043    0.14687209   
     86500   0.1948399     -0.17422149     0             -0.013542658   -0.029406172  
     87000   0.18974561    -0.17929257     0             -0.022814854    0.01373345   
     87500   0.19441731    -0.18133099     0             -0.021000657    0.050071958  
     88000   0.20276753    -0.18838645     0             -0.021169944   -0.0096149509 
     88500   0.20226433    -0.18603362     0             -0.019232085    0.013468521  
     89000   0.21163512    -0.18244446     0             -0.0079151073   0.010405926  
     89500   0.22327771    -0.17945309     0              0.004677574   -0.012204003  
     90000   0.22414512    -0.18209659     0              0.0027493989  -0.031705169  
     90500   0.21935345    -0.18113266     0             -0.00023822104  0.048717456  
     91000   0.21869569    -0.17616857     0              0.0041834402   0.45493342   
     91500   0.20869977    -0.17591195     0             -0.0038032872  -0.029224771  
     92000   0.21555659    -0.17170214     0              0.0060611365   0.044136282  
     92500   0.22348617    -0.17502093     0              0.0092816473  -0.049200759  
     93000   0.23543405    -0.17628545     0              0.017870194    0.0052002652 
     93500   0.22144582    -0.17472066     0              0.0078992946  -0.0095395983 
     94000   0.21651851    -0.17348953     0              0.0050670238  -0.023028257  
     94500   0.21430687    -0.17540411     0              0.001328559    0.039752503  
     95000   0.20373202    -0.17902711     0             -0.01101521     0.031524112  
     95500   0.20721069    -0.17471264     0             -0.0038319791   0.090455881  
     96000   0.20394791    -0.17217539     0             -0.0039854573   0.016026081  
     96500   0.19144661    -0.17482068     0             -0.016940209   -0.11097012   
     97000   0.1962098     -0.17737494     0             -0.015566391    0.055573082  
     97500   0.19121995    -0.17515502     0             -0.017461462   -0.039526495  
     98000   0.19000222    -0.17627421     0             -0.019584882    0.056685345  
     98500   0.18503812    -0.17496232     0             -0.022366733    0.11148294   
     99000   0.19274991    -0.17901848     0             -0.020063207   -0.034837454  
     99500   0.18718428    -0.17873882     0             -0.024373361   -0.054324209  
    100000   0.18128877    -0.17906223     0             -0.029558625   -0.10280117   
    100500   0.18046808    -0.18270119     0             -0.033874393   -0.015463157  
    101000   0.19647851    -0.18504264     0             -0.023012494    0.065617109  
    101500   0.21293344    -0.17708268     0             -0.0014826402  -0.035666704  
    102000   0.20221923    -0.17605745     0             -0.0092930994  -0.10168654   
    102500   0.19442438    -0.18030625     0             -0.019970098   -0.11443281   
    103000   0.19746463    -0.17852491     0             -0.015681543    0.14999076   
    103500   0.21786856    -0.17692725     0              0.0027426488   0.15290653   
    104000   0.21328145    -0.17591056     0             -2.3526376e-05  0.011770597  
    104500   0.21234997    -0.1761562      0             -0.0010373229   0.010873717  
    105000   0.20507195    -0.18319631     0             -0.01407941     0.0257548    
    105500   0.20267575    -0.1788017      0             -0.011660882   -0.05679399   
    106000   0.19711205    -0.17924566     0             -0.016693061   -0.00594353   
    106500   0.19403381    -0.18013325     0             -0.020119183    0.030957924  
    107000   0.20420288    -0.1823195      0             -0.013919288    0.14508007   
    107500   0.20786056    -0.17761753     0             -0.0062009434   0.046980829  
    108000   0.20319366    -0.17544794     0             -0.0078800053  -0.0085350414 
    108500   0.19257213    -0.18317481     0             -0.024366147   -0.022799451  
    109000   0.18805857    -0.18544721     0             -0.030360745   -0.015790066  
    109500   0.20484872    -0.18519745     0             -0.016264643    0.070369625  
    110000   0.21410193    -0.18466648     0             -0.0081028122   0.10329184   
    110500   0.20320009    -0.18461346     0             -0.017040223   -0.035200619  
    111000   0.22205697    -0.17873906     0              0.0043848917   0.071058732  
    111500   0.21778651    -0.18022989     0             -0.00062765801  0.037997496  
    112000   0.21752403    -0.1773943      0              0.0019914689  -0.094414074  
    112500   0.21933233    -0.17610028     0              0.0047767449   0.068750808  
    113000   0.22190243    -0.17473004     0              0.0082664702   0.019452109  
    113500   0.22727811    -0.17633011     0              0.011099566    0.11211334   
    114000   0.2320776     -0.17439627     0              0.016991406    0.089573125  
    114500   0.23980998    -0.16577965     0              0.031984698   -0.0035102958 
    115000   0.24600895    -0.17047339     0              0.032403072    0.086428378  
    115500   0.24315772    -0.17244367     0              0.02808146     0.073289899  
    116000   0.232637      -0.16811423     0              0.023734764    0.01868657   
    116500   0.22855919    -0.17296577     0              0.015520382    0.038609564  
    117000   0.23631004    -0.17267223     0              0.022205821    0.14858915   
    117500   0.23173796    -0.17547005     0              0.015637537   -0.1185762    
    118000   0.23597932    -0.1775272      0              0.017078115   -0.011424113  
    118500   0.22220972    -0.16842044     0              0.014829476   -0.014089139  
    119000   0.21853658    -0.17280079     0              0.0074200072  -0.068201008  
    119500   0.20887004    -0.16715337     0              0.0050957046  -0.0082122669 
    120000   0.21230044    -0.16841149     0              0.0066665358   0.26289858   
    120500   0.21957837    -0.16603444     0              0.015045483   -0.010210553  
    121000   0.21036605    -0.16240388     0              0.011078916   -0.010344823  
    121500   0.21351365    -0.16718394     0              0.0088945825  -0.091741113  
    122000   0.22533962    -0.16380189     0              0.022029167   -0.068706498  
    122500   0.21876719    -0.16294791     0              0.017463053    0.055236965  
    123000   0.22264457    -0.16872885     0              0.014879681   -0.0077733993 
    123500   0.2174796     -0.17117135     0              0.0081777807   0.011103977  
    124000   0.21484519    -0.17225313     0              0.0049234755  -0.035840537  
    124500   0.21521616    -0.16960123     0              0.0078813043  -0.0694571    
    125000   0.22343606    -0.17496534     0              0.0092959125  -0.019860676  
    125500   0.23644181    -0.17016226     0              0.024824463    0.01182003   
    126000   0.2382336     -0.16871996     0              0.027744397   -0.023935344  
    126500   0.23804575    -0.1648427      0              0.031466746    0.011404852  
    127000   0.23139487    -0.16166657     0              0.029158078    0.014219927  
    127500   0.23660402    -0.16791074     0              0.027209749   -0.0058826885 
    128000   0.23482907    -0.16775163     0              0.025905115   -0.010903755  
    128500   0.22463061    -0.16750658     0              0.017739783   -0.011524142  
    129000   0.22665016    -0.16730635     0              0.019605472   -0.057828964  
    129500   0.22413136    -0.17679611     0              0.0080385422  -0.075742788  
    130000   0.21174764    -0.17440462     0              0.00021753197 -0.11991197   
    130500   0.22573711    -0.17770842     0              0.0084504346  -0.028709284  
    131000   0.22618036    -0.17326081     0              0.013263591   -0.057555455  
    131500   0.22239851    -0.1734731      0              0.0099325094   0.040964531  
    132000   0.21263589    -0.17254244     0              0.0028122179   0.074800349  
    132500   0.21505894    -0.17584745     0              0.0015054306   0.10011984   
    133000   0.20880293    -0.1728086      0             -0.00061487084 -0.026890782  
    133500   0.19877712    -0.17459884     0             -0.010673095    0.0048626431 
    134000   0.20653705    -0.17879382     0             -0.0084686885   0.0083455633 
    134500   0.21109221    -0.17282684     0              0.0012547991   0.024630724  
    135000   0.21097839    -0.18028767     0             -0.006299906    0.015338306  
    135500   0.21708004    -0.17716993     0              0.0018497031  -0.0082599183 
    136000   0.21714663    -0.17690856     0              0.0021659736   0.036019004  
    136500   0.22929713    -0.17484689     0              0.014247817   -0.059026807  
    137000   0.20747075    -0.16618538     0              0.0049097417  -0.11932614   
    137500   0.20230315    -0.17235849     0             -0.0055249349   0.059046038  
    138000   0.20918869    -0.17162485     0              0.00088700866  0.015476987  
    138500   0.20795775    -0.17145621     0              4.0523053e-05  0.22570497   
    139000   0.2044835     -0.17240597     0             -0.0037743437  -0.030221933  
    139500   0.1916566     -0.17684101     0             -0.018787357   -0.0047183515 
    140000   0.1950805     -0.17078041     0             -0.0099031649  -0.016467489  
    140500   0.18559245    -0.16818797     0             -0.015135253    0.073864804  
    141000   0.17967816    -0.17936297     0             -0.031187594    0.0091899136 
    141500   0.17820735    -0.17990835     0             -0.032945912    0.10137077   
    142000   0.18494269    -0.17845904     0             -0.025942155    0.058891845  
    142500   0.19145716    -0.18170663     0             -0.023817455    0.23518063   
    143000   0.20709966    -0.1749461      0             -0.0041570016  -0.051786581  
    143500   0.20959857    -0.17034364     0              0.0025062318   0.038180092  
    144000   0.2000818     -0.17396004     0             -0.0089583723   0.088373384  
    144500   0.20340261    -0.16934854     0             -0.0016082967   0.18492592   
    145000   0.21676568    -0.1658655      0              0.01289488     0.074926746  
    145500   0.20992457    -0.17023768     0              0.0028810385   0.040518803  
    146000   0.20590865    -0.17067757     0             -0.0008706678   0.041613271  
    146500   0.20290556    -0.17191218     0             -0.0045818342   0.056361143  
    147000   0.21455313    -0.17267706     0              0.004258696    0.017329876  
    147500   0.20441532    -0.16603359     0              0.0025418099  -0.013860767  
    148000   0.21351249    -0.18022056     0             -0.0041429967   0.027495175  
    148500   0.21701016    -0.17594474     0              0.0030172598   0.13795501   
    149000   0.19765128    -0.17851792     0             -0.01552063    -0.041204292  
    149500   0.20294353    -0.18170477     0             -0.014343113    0.35216607   
    150000   0.20848806    -0.17660092     0             -0.0046668545  -0.056319121  
    150500   0.2007791     -0.1730741      0             -0.0074973914   0.023234722  
    151000   0.18912017    -0.17297367     0             -0.017011735    0.029381274  
    151500   0.19014654    -0.17302951     0             -0.016221162    0.0059054326 
    152000   0.18856246    -0.17525258     0             -0.019750576   -0.00038660916
    152500   0.21128711    -0.1756711      0             -0.0014287355   0.04355216   
    153000   0.2070127     -0.17715386     0             -0.0064364745   0.0070919902 
    153500   0.19976797    -0.17070004     0             -0.0059571737   0.020667669  
    154000   0.20610018    -0.16877064     0              0.0011942158   0.036417066  
    154500   0.19983284    -0.17259473     0             -0.0077983682  -0.045028227  
    155000   0.2054055     -0.17118616     0             -0.0017941898  -0.027939463  
    155500   0.20336233    -0.16226922     0              0.005437811   -0.069816076  
    156000   0.21180071    -0.1655874      0              0.0090785121   0.092453279  
    156500   0.22271819    -0.15928126     0              0.024387984    0.046674139  
    157000   0.2136427     -0.16382592     0              0.012359028   -0.0076317785 
    157500   0.21148882    -0.17302463     0              0.0013840791  -0.090237605  
    158000   0.20353552    -0.17306439     0             -0.0052145403   0.029184472  
    158500   0.20283306    -0.16899964     0             -0.0017290949   0.034864815  
    159000   0.22035213    -0.16568352     0              0.016034505   -0.087023396  
    159500   0.21289749    -0.16671627     0              0.0088541243  -0.078425957  
    160000   0.22202507    -0.17004753     0              0.013050124    0.05701473   
    160500   0.22051431    -0.17244935     0              0.0094024206  -0.0070533312 
    161000   0.20700641    -0.16130131     0              0.0094108814   0.05620756   
    161500   0.21308235    -0.16707148     0              0.0086513611  -0.048524147  
    162000   0.20754035    -0.17120584     0             -5.3324733e-05 -0.00085747432
    162500   0.18709849    -0.16909379     0             -0.014799076    0.096714483  
    163000   0.18332433    -0.1812046      0             -0.030022336   -0.046248387  
    163500   0.18405353    -0.17652985     0             -0.02474623     0.054502124  
    164000   0.18863469    -0.17751015     0             -0.021948585   -0.029379054  
    164500   0.18930273    -0.18140013     0             -0.025287645   -0.043971609  
    165000   0.18477316    -0.18272216     0             -0.030345089    0.017943075  
    165500   0.19218457    -0.18183154     0             -0.023342494   -0.025562523  
    166000   0.18127551    -0.18337734     0             -0.033884681    0.021338109  
    166500   0.18653474    -0.18474893     0             -0.030919132    0.1820291    
    167000   0.18889134    -0.18558217     0             -0.029808942   -0.017052252  
    167500   0.18209591    -0.18915597     0             -0.038986747   -0.016026266  
    168000   0.18361183    -0.18419013     0             -0.032770764    0.014404926  
    168500   0.19180995    -0.18439176     0             -0.026211647    0.028355908  
    169000   0.19806629    -0.18825233     0             -0.024912798    0.051310544  
    169500   0.18812066    -0.18321376     0             -0.028076104   -0.022802733  
    170000   0.20581928    -0.18818512     0             -0.018451911    0.01966683   
    170500   0.20551508    -0.18130908     0             -0.011826742    0.0022953341 
    171000   0.20367629    -0.17343823     0             -0.005472289   -0.070381338  
    171500   0.20912074    -0.17967091     0             -0.0072150821   0.025630532  
    172000   0.20424249    -0.17602832     0             -0.0075954516   0.077698789  
    172500   0.20559071    -0.17560708     0             -0.0060623812  -0.061091995  
    173000   0.21904999    -0.17720984     0              0.0034343415   0.039548492  
    173500   0.21939314    -0.17502512     0              0.0059020548   0.10407623   
    174000   0.23921377    -0.17354598     0              0.023726687    0.023931993  
    174500   0.24780606    -0.16610043     0              0.03825806    -0.14724319   
    175000   0.24590514    -0.16445904     0              0.038331803    0.090078411  
    175500   0.22947109    -0.16833505     0              0.02090311     9.83086e-05  
    176000   0.21894323    -0.17385049     0              0.0067056531  -0.041433394  
    176500   0.24328981    -0.17325914     0              0.027374923   -0.054781856  
    177000   0.25027222    -0.16787806     0              0.038514202    0.038513852  
    177500   0.24467437    -0.16480026     0              0.036975612   -0.089855706  
    178000   0.24766551    -0.15448113     0              0.049761448   -0.0148665    
    178500   0.24521809    -0.16190625     0              0.04031801     0.25175238   
    179000   0.22758811    -0.16629057     0              0.021394759    0.040803826  
    179500   0.21841753    -0.16275475     0              0.017367871    0.040907054  
    180000   0.23074031    -0.16435245     0              0.0259324     -0.051224648  
    180500   0.23056621    -0.16919051     0              0.020950772    0.078067447  
    181000   0.22109125    -0.1699654      0              0.012362158    0.092752122  
    181500   0.23882305    -0.17398843     0              0.022962023    0.25382599   
    182000   0.23811898    -0.16387647     0              0.032493367   -0.02011236   
    182500   0.23189254    -0.16741121     0              0.023823861    0.10042641   
    183000   0.22758725    -0.17093975     0              0.016744868    0.31667551   
    183500   0.23403869    -0.17282626     0              0.020178673    0.18212679   
    184000   0.22754042    -0.16929206     0              0.018353931    0.083413826  
    184500   0.21759288    -0.17144337     0              0.0079991867   0.0073271512 
    185000   0.20703285    -0.17046867     0              0.000265331    0.051879719  
    185500   0.21201712    -0.18003382     0             -0.0051894424  -0.030081362  
    186000   0.22986917    -0.16518405     0              0.024382399   -0.080699442  
    186500   0.22378671    -0.16939168     0              0.015158733    0.030633037  
    187000   0.22238154    -0.16976777     0              0.013623848    0.13367409   
    187500   0.2219515     -0.17731475     0              0.0057222333  -0.050022423  
    188000   0.20892271    -0.16874223     0              0.0035502763  -0.15136487   
    188500   0.20379027    -0.17728103     0             -0.0092210936  -0.058461507  
    189000   0.20335674    -0.17449096     0             -0.0067885364   0.039181819  
    189500   0.22029517    -0.16824931     0              0.013421741   -0.056546634  
    190000   0.22355581    -0.17018793     0              0.014172078    0.10610033   
    190500   0.22706381    -0.1650167      0              0.022236256    0.04309344   
    191000   0.22001456    -0.17419324     0              0.0072463981  -0.017614136  
    191500   0.23104831    -0.17407787     0              0.016460981    0.0013795497 
    192000   0.235019      -0.17009894     0              0.023714428    0.049111413  
    192500   0.2450814     -0.16997433     0              0.032137203    0.0016563722 
    193000   0.23873387    -0.17251842     0              0.024358491    0.16860224   
    193500   0.2347405     -0.16657854     0              0.027005155    0.16386677   
    194000   0.23604025    -0.16993002     0              0.024725537   -0.0074258556 
    194500   0.23286468    -0.16606164     0              0.025975119    0.21812172   
    195000   0.23105219    -0.16446815     0              0.026073901   -0.070119109  
    195500   0.22897128    -0.16570734     0              0.023118648    0.079634772  
    196000   0.22846775    -0.16433275     0              0.024077989   -0.013261733  
    196500   0.2381253     -0.16806946     0              0.028305582    0.0015362239 
    197000   0.2442353     -0.15624947     0              0.045164316    0.13555174   
    197500   0.24311586    -0.1543628      0              0.046127812   -0.15126301   
    198000   0.24104731    -0.16248949     0              0.03629525     0.14861342   
    198500   0.23492027    -0.16148019     0              0.032251763    0.044185748  
    199000   0.24935971    -0.15562931     0              0.050010422    0.09719263   
    199500   0.26013068    -0.15291144     0              0.061610795    0.033692456  
    200000   0.24657491    -0.15273986     0              0.05060333     0.11564419   
    200500   0.23779035    -0.14672293     0              0.049375891    0.088468892  
    201000   0.24308233    -0.15026474     0              0.05019822    -0.030099212  
    201500   0.22979166    -0.14964149     0              0.039861035    0.073786349  
    202000   0.22952267    -0.14593378     0              0.043346929    0.053651238  
    202500   0.22654621    -0.14913711     0              0.037688989   -0.026374927  
    203000   0.21145759    -0.15518073     0              0.019202224    0.049748378  
    203500   0.20619755    -0.15539895     0              0.014646201    0.27843193   
    204000   0.1985961     -0.16247299     0              0.0013034705  -0.038823642  
    204500   0.22051762    -0.15735667     0              0.024497832    0.096585479  
    205000   0.22217373    -0.15387111     0              0.02934913     0.024731596  
    205500   0.21431051    -0.16051588     0              0.016219791    0.0070517618 
    206000   0.20981132    -0.15794742     0              0.015077899    0.033931657  
    206500   0.22172806    -0.15702675     0              0.025825959    0.36046364   
    207000   0.22383286    -0.14943408     0              0.035154398   -0.022621706  
    207500   0.22511122    -0.15021428     0              0.035428429    0.050497679  
    208000   0.2273353     -0.1596375      0              0.02783934     0.070669383  
    208500   0.23163982    -0.15277306     0              0.038253599    0.1067905    
    209000   0.22427612    -0.16352523     0              0.02142879    -0.11434992   
    209500   0.22805109    -0.15792449     0              0.030142643   -0.021060378  
    210000   0.22877393    -0.15685082     0              0.031812423   -0.015064563  
    210500   0.23400119    -0.16326073     0              0.029713279    0.29007207   
    211000   0.23018211    -0.16763754     0              0.022186982   -0.076382506  
    211500   0.22756413    -0.16621439     0              0.021451162   -0.023647872  
    212000   0.22638691    -0.16336943     0              0.023325297    0.012933246  
    212500   0.22742495    -0.16385866     0              0.023692112   -0.020525168  
    213000   0.23623547    -0.1641039      0              0.030712652    0.049086862  
    213500   0.21923872    -0.1581855      0              0.022614325   -0.04564383   
    214000   0.23680705    -0.1584264      0              0.036861518    0.047897857  
    214500   0.24294337    -0.15857144     0              0.041776925    0.17416796   
    215000   0.2364713     -0.1559654      0              0.039045629    0.13091809   
    215500   0.23023274    -0.15328556     0              0.036580715    0.084831514  
    216000   0.2318761     -0.15710002     0              0.03412149    -0.072686978  
    216500   0.23121166    -0.16268238     0              0.027991184    0.043381905  
    217000   0.24426651    -0.15911689     0              0.042322629    0.013945702  
    217500   0.24031638    -0.16004249     0              0.038139471   -0.018937019  
    218000   0.25035621    -0.15042061     0              0.056040911    0.12610194   
    218500   0.24383414    -0.15098795     0              0.050095003   -0.042076596  
    219000   0.23214809    -0.15786703     0              0.03357878     0.091121972  
    219500   0.23432721    -0.16457637     0              0.028666498    0.054315039  
    220000   0.24515012    -0.15080788     0              0.051360328    0.1518067    
    220500   0.25089245    -0.15386464     0              0.053039105    0.12913982   
    221000   0.23947752    -0.15032074     0              0.047169435    0.13753173   
    221500   0.24868383    -0.15729506     0              0.0477873      0.11748896   
    222000   0.24014882    -0.15475142     0              0.043292357   -0.046295733  
    222500   0.2309862     -0.15430792     0              0.036179705   -0.0014352381 
    223000   0.23774141    -0.15645164     0              0.03960682     0.018856604  
    223500   0.22820933    -0.1516002      0              0.03659743     0.010710866  
    224000   0.22100588    -0.15499936     0              0.027257786    0.018007152  
    224500   0.21348191    -0.15842        0              0.017632352   -0.018725848  
    225000   0.2198661     -0.16349317     0              0.017824038   -0.037230755  
    225500   0.22036791    -0.16171007     0              0.020020962   -0.090684452  
    226000   0.22407731    -0.16530552     0              0.019484554    0.10224164   
    226500   0.22078758    -0.16702986     0              0.015047269    0.079827728  
    227000   0.21179958    -0.1675617      0              0.0071032839   0.057835027  
    227500   0.21442804    -0.16743421     0              0.009398388    0.0784655    
    228000   0.21472476    -0.17168373     0              0.0053935641   0.079904469  
    228500   0.20766563    -0.16651762     0              0.0047382171   0.2092566    
    229000   0.21178118    -0.173559       0              0.0010908089  -0.097279463  
    229500   0.22931904    -0.16858432     0              0.020528456    0.11124054   
    230000   0.2373144     -0.17348843     0              0.022217884    0.035010183  
    230500   0.23916503    -0.16960524     0              0.027627235    0.13295469   
    231000   0.23536596    -0.16854843     0              0.025551066    0.015592792  
    231500   0.2263739     -0.16621498     0              0.020469016   -0.046346081  
    232000   0.22995017    -0.16678972     0              0.02284353    -0.0054179339 
    232500   0.21507166    -0.16690254     0              0.010460832    0.012877952  
    233000   0.20752907    -0.16361023     0              0.0075329847  -0.016692283  
    233500   0.23105864    -0.15967949     0              0.030867883    0.12831698   
    234000   0.21624288    -0.15789272     0              0.020436529    0.036803043  
    234500   0.22516534    -0.15757039     0              0.028116955   -0.027521788  
    235000   0.22828198    -0.15740491     0              0.030852632    0.026754951  
    235500   0.216216      -0.15964866     0              0.01865842    -0.14174492   
    236000   0.21678312    -0.1613788      0              0.017395961    0.05841183   
    236500   0.21152635    -0.16284665     0              0.011593006    0.085280713  
    237000   0.20802035    -0.16746561     0              0.0040827447  -0.009845714  
    237500   0.22117153    -0.16722991     0              0.015163849    0.21458327   
    238000   0.21715006    -0.16049889     0              0.018578482   -0.057752111  
    238500   0.22621852    -0.16875052     0              0.01780535     0.019756784  
    239000   0.22758305    -0.15779343     0              0.029887726    0.039235876  
    239500   0.23000098    -0.15996378     0              0.029711366    0.08991833   
    240000   0.22623145    -0.15941727     0              0.027149259    0.02063863   
    240500   0.22192696    -0.15964798     0              0.023368762    0.050278567  
    241000   0.21718261    -0.15600272     0              0.023101491   -0.045623459  
    241500   0.20940455    -0.16571113     0              0.0069787416  -0.0028643355 
    242000   0.20370126    -0.16608988     0              0.0018966476   0.093976584  
    242500   0.19873584    -0.16848686     0             -0.0045951668   0.064200342  
    243000   0.20680111    -0.17298142     0             -0.0024385296  -0.027905132  
    243500   0.20742288    -0.17258199     0             -0.0015263499   0.063041672  
    244000   0.23033777    -0.16426657     0              0.02568632     0.2525084    
    244500   0.21548545    -0.16064091     0              0.017063702    0.018848085  
    245000   0.20683625    -0.16623418     0              0.0043376925   0.041979412  
    245500   0.21092962    -0.16548386     0              0.0084636919  -0.045692511  
    246000   0.20293211    -0.17018724     0             -0.0028350043   0.16428493   
    246500   0.20688421    -0.17485553     0             -0.0042441108  -0.053019602  
    247000   0.1981063     -0.17317503     0             -0.0098025018  -0.18116971   
    247500   0.20053973    -0.170077       0             -0.0046976936   0.083665236  
    248000   0.21597082    -0.17460598     0              0.0034989078   0.0024076758 
    248500   0.21423152    -0.17372621     0              0.0029443222  -0.060421425  
    249000   0.21060201    -0.17885336     0             -0.0051759806  -0.038560726  
    249500   0.21135361    -0.17647489     0             -0.0021776851  -0.017129825  
    250000   0.21310267    -0.17125282     0              0.0044867864   0.075714302  
    250500   0.20707723    -0.17458371     0             -0.0038131121   0.35124942   
    251000   0.22076235    -0.17317778     0              0.0088785455   0.29653334   
    251500   0.21819208    -0.17732662     0              0.002610072    0.24728381   
    252000   0.21376242    -0.17080283     0              0.0054808503   0.037911739  
    252500   0.22533684    -0.16558236     0              0.020246406    0.10964795   
    253000   0.22664441    -0.1607758      0              0.026131283   -0.052411414  
    253500   0.22387837    -0.16845227     0              0.016173744    0.10922037   
    254000   0.22485546    -0.16414824     0              0.021283548    0.036996863  
    254500   0.23299082    -0.16074772     0              0.031393065    0.039105123  
    255000   0.22428267    -0.15951179     0              0.025447642    0.061615238  
    255500   0.22563042    -0.16085183     0              0.025219045   -0.014554693  
    256000   0.23656718    -0.16511284     0              0.029977261   -0.014931779  
    256500   0.237316      -0.1577828      0              0.037924836   -0.027278058  
    257000   0.22400464    -0.15723948     0              0.027490667   -0.056904497  
    257500   0.22007338    -0.15757863     0              0.023909511   -0.0091337898 
    258000   0.23930468    -0.15382663     0              0.043521009   -0.024228735  
    258500   0.2355177     -0.14523112     0              0.048993513   -0.061934242  
    259000   0.24790833    -0.14612437     0              0.058318457    0.055743405  
    259500   0.25775701    -0.14855782     0              0.064006927    0.31582873   
    260000   0.25557649    -0.14673631     0              0.064030226    0.14121989   
    260500   0.2484342     -0.15035942     0              0.054517073    0.04472811   
    261000   0.24888863    -0.14987614     0              0.055375111    0.022000515  
    261500   0.24743251    -0.15412655     0              0.049923884   -0.016880943  
    262000   0.24167814    -0.15806886     0              0.041236109   -0.037908711  
    262500   0.25163449    -0.15943448     0              0.048081195    0.1450039    
    263000   0.25489468    -0.14787552     0              0.062328748    0.02253866   
    263500   0.25390293    -0.15048956     0              0.058896839   -0.006050018  
    264000   0.23646482    -0.15282487     0              0.042180822    0.047088024  
    264500   0.23894441    -0.15115149     0              0.045899048   -0.020257983  
    265000   0.23054045    -0.15646831     0              0.033651733   -0.066041614  
    265500   0.22918197    -0.15518376     0              0.03381597     0.2173222    
    266000   0.23966288    -0.15492712     0              0.042715923   -0.17766043   
    266500   0.24520615    -0.15056708     0              0.051647326    0.093677576  
    267000   0.24503712    -0.14578893     0              0.056286093    0.12191748   
    267500   0.2527038     -0.15000057     0              0.058396939    0.092032774  
    268000   0.25590602    -0.15431328     0              0.056725011   -0.037135476  
    268500   0.23981048    -0.15722291     0              0.040541855    0.088749781  
    269000   0.23823677    -0.15128858     0              0.045178395   -0.022315209  
    269500   0.24233352    -0.14755598     0              0.052289455   -0.098912667  
    270000   0.22907442    -0.15167548     0              0.037235558    0.033430122  
    270500   0.23031151    -0.14864221     0              0.041289024    0.027263419  
    271000   0.21933235    -0.15340894     0              0.027468101    0.033940828  
    271500   0.22062287    -0.15135796     0              0.030583328   -0.010641288  
    272000   0.22829256    -0.1552267      0              0.033039568   -0.056479515  
    272500   0.22409643    -0.15140306     0              0.033402785    0.050656357  
    273000   0.2469599     -0.15177919     0              0.051881486    0.093299268  
    273500   0.24066837    -0.15153764     0              0.046934595   -0.01137853   
    274000   0.23025166    -0.15320479     0              0.036677093    0.072125125  
    274500   0.23798951    -0.15942312     0              0.036839942   -0.010055149  
    275000   0.23090221    -0.15833412     0              0.032084254    0.15574882   
    275500   0.23120892    -0.15146138     0              0.039209924    0.04056029   
    276000   0.24156281    -0.15355367     0              0.045656179    0.018716685  
    276500   0.22658639    -0.14850553     0              0.038353707    0.0077463161 
    277000   0.23018023    -0.15455352     0              0.035269453    0.37950812   
    277500   0.22976331    -0.15118088     0              0.038298275   -0.1431561    
    278000   0.22411446    -0.15532108     0              0.029499629    0.11366389   
    278500   0.22134407    -0.15800467     0              0.024531373    0.068781563  
    279000   0.22064174    -0.16508491     0              0.01687195     0.094899272  
    279500   0.22549282    -0.15750035     0              0.028457056   -0.025313291  
    280000   0.21670811    -0.16023662     0              0.018476291   -0.045761546  
    280500   0.22399166    -0.16676889     0              0.017950547    0.057391278  
    281000   0.22170581    -0.16656002     0              0.016274343   -0.008692966  
    281500   0.21700063    -0.16110161     0              0.017852533    0.013142091  
    282000   0.24224497    -0.1631624      0              0.036610015   -0.067737474  
    282500   0.24204255    -0.15485118     0              0.044754305    0.065282804  
    283000   0.24756637    -0.15909494     0              0.04506588     0.2048735    
    283500   0.23527295    -0.16224705     0              0.031775735    0.030273286  
    284000   0.24513154    -0.16144252     0              0.04071036     0.0056190645 
    284500   0.23707972    -0.16513331     0              0.030379468   -0.039771908  
    285000   0.26531187    -0.15762292     0              0.061172095    0.11084554   
    285500   0.24527729    -0.15147706     0              0.05079602     0.15735513   
    286000   0.24422968    -0.15495225     0              0.046456899   -0.011546365  
    286500   0.24117435    -0.15920022     0              0.039689288   -0.015816317  
    287000   0.24162038    -0.16101066     0              0.038246674    0.095878646  
    287500   0.24554404    -0.15926528     0              0.043227783    0.095000753  
    288000   0.24689712    -0.15521789     0              0.048391012   -0.10183956   
    288500   0.24271074    -0.14892033     0              0.051236191    0.094303663  
    289000   0.24537093    -0.15747528     0              0.044875023    0.020270927  
    289500   0.25020977    -0.15090706     0              0.055433696    0.17500706   
    290000   0.24835645    -0.15064928     0              0.054163097    0.026493623  
    290500   0.25195576    -0.15099397     0              0.056786659    0.080182608  
    291000   0.25016906    -0.15286216     0              0.053445023    0.030503177  
    291500   0.25225844    -0.15481296     0              0.053217275   -0.077689684  
    292000   0.25535904    -0.15929584     0              0.051291363    0.01070704   
    292500   0.23447147    -0.1599462      0              0.033415632   -0.11526159   
    293000   0.23700816    -0.15501182     0              0.040441946   -0.0082810276 
    293500   0.22345902    -0.15658247     0              0.027697714    0.090399311  
    294000   0.22506642    -0.16075741     0              0.024848355   -0.036456993  
    294500   0.22597245    -0.16238012     0              0.023972819    0.11345104   
    295000   0.22370359    -0.15561532     0              0.028866555    0.1350048    
    295500   0.22123001    -0.16243349     0              0.020008497   -0.086336172  
    296000   0.20480689    -0.16193134     0              0.006966977    0.23304019   
    296500   0.21222278    -0.16395672     0              0.011057264   -0.073085625  
    297000   0.20546975    -0.16267157     0              0.0067733853  -0.10465393   
    297500   0.21346317    -0.15940481     0              0.016632092   -0.01223659   
    298000   0.21115591    -0.16144568     0              0.012688486   -0.015514203  
    298500   0.20158727    -0.16694838     0             -0.00070519588  0.068750633  
    299000   0.21352313    -0.16071465     0              0.015371689    0.24188136   
    299500   0.22107428    -0.16834253     0              0.013971032    0.07214304   
    300000   0.21960787    -0.16491003     0              0.016194224   -0.089304814  
    300500   0.22842286    -0.16699166     0              0.021382063   -0.030182614  
    301000   0.22182067    -0.16814111     0              0.014787973    0.1156827    
    301500   0.22262436    -0.1648617      0              0.018730169    0.032418548  
    302000   0.22805955    -0.15624889     0              0.03182522    -0.10555745   
    302500   0.23558999    -0.16390647     0              0.03037778     0.096159671  
    303000   0.21739568    -0.16042223     0              0.018857694    0.063371671  
    303500   0.21255352    -0.16405123     0              0.011235504    0.029343003  
    304000   0.22076923    -0.16523291     0              0.016829081   -0.0073301104 
    304500   0.22053313    -0.16717365     0              0.01469364    -0.097687596  
    305000   0.20784885    -0.16907345     0              0.0023334833   0.014849486  
    305500   0.20712658    -0.17436944     0             -0.0035581426   0.010225527  
    306000   0.2148506     -0.17494837     0              0.0022327031   0.18249694   
    306500   0.20595186    -0.17429789     0             -0.0044553604  -0.060825228  
    307000   0.19915752    -0.17181549     0             -0.0075760493  -0.094481631  
    307500   0.19650917    -0.17470683     0             -0.012651403   -0.0097774267 
    308000   0.20179719    -0.16917708     0             -0.0027607825  -0.10967781   
    308500   0.20386961    -0.17192441     0             -0.0037990362  -0.10536932   
    309000   0.20000746    -0.17259815     0             -0.0076577912  -0.026292216  
    309500   0.20488757    -0.17269914     0             -0.0037342915   0.085206682  
    310000   0.19734053    -0.17196751     0             -0.0092264795  -0.039739711  
    310500   0.19664273    -0.17934637     0             -0.017180795   -0.051579627  
    311000   0.19387718    -0.17643899     0             -0.016554099    0.035332918  
    311500   0.21396046    -0.17178903     0              0.0046579643  -0.10032449   
    312000   0.21231135    -0.17989359     0             -0.0048065634   0.060544914  
    312500   0.2267915     -0.16788172     0              0.019146668   -0.0069832425 
    313000   0.22743732    -0.17135899     0              0.016201983   -0.060694307  
    313500   0.21492719    -0.1722057      0              0.0050385289  -0.075927321  
    314000   0.21664025    -0.1790533      0             -0.00039635486  0.067165876  
    314500   0.21944046    -0.17941855     0              0.0015476442  -0.039132508  
    315000   0.20454339    -0.18231572     0             -0.013634708    0.070656873  
    315500   0.19885003    -0.17763584     0             -0.013649971    0.0172957    
    316000   0.21011582    -0.17936889     0             -0.0060924526   0.10199408   
    316500   0.22113709    -0.17771626     0              0.0046491018   0.21181557   
    317000   0.22037967    -0.17110216     0              0.010638574   -0.10491897   
    317500   0.23063951    -0.17114966     0              0.01905207    -0.0076986113 
    318000   0.21700241    -0.17694361     0              0.0020119992  -0.013635665  
    318500   0.21124224    -0.17846417     0             -0.0042588092  -0.072547643  
    319000   0.21025716    -0.17361588     0             -0.00022289025  0.060718798  
    319500   0.21384502    -0.17595483     0              0.00039697098 -0.063040532  
    320000   0.22045442    -0.17053346     0              0.011268916   -0.025611283  
    320500   0.22231655    -0.16892269     0              0.014415328    0.19034181   
    321000   0.24204262    -0.16085779     0              0.038747752   -0.046962118  
    321500   0.24062651    -0.15647104     0              0.041966678   -0.08635285   
    322000   0.22901434    -0.1583389      0              0.030522593   -0.065516244  
    322500   0.23661155    -0.15776425     0              0.037362447   -0.078148974  
    323000   0.23692414    -0.161191       0              0.034193478   -0.11831358   
    323500   0.23243453    -0.15635406     0              0.035327968   -0.0025181094 
    324000   0.22376854    -0.16415097     0              0.020384474   -0.010617014  
    324500   0.2321771     -0.16329901     0              0.028170722    0.23963538   
    325000   0.23810437    -0.15950828     0              0.036849502    0.12808286   
    325500   0.23817031    -0.15575509     0              0.040657072    0.012030498  
    326000   0.23430715    -0.15757472     0              0.035651604   -0.15117956   
    326500   0.22520599    -0.16123538     0              0.024485484   -0.096064731  
    327000   0.22864259    -0.16667846     0              0.021876459    0.1544932    
    327500   0.21506925    -0.16681137     0              0.010550015    0.17654769   
    328000   0.2172774     -0.1717908      0              0.0073915789   0.11646628   
    328500   0.20313577    -0.16207742     0              0.0054427711  -0.15418639   
    329000   0.20264058    -0.16116873     0              0.0059430876   0.11072552   
    329500   0.19829999    -0.17378814     0             -0.010255876    0.041512152  
    330000   0.20345997    -0.17041985     0             -0.002632305   -0.050237411  
    330500   0.21164271    -0.16905971     0              0.005475915    0.28966094   
    331000   0.21195891    -0.17103979     0              0.0037565856   0.098148873  
    331500   0.21959836    -0.16877274     0              0.012323667   -0.036018407  
    332000   0.21519759    -0.16611346     0              0.011353756   -0.15648824   
    332500   0.21337103    -0.16940662     0              0.0065542904  -0.036151669  
    333000   0.21856538    -0.1659221      0              0.014322442    0.080421419  
    333500   0.22355023    -0.15868782     0              0.025667586    0.0098645409 
    334000   0.2235125     -0.15937761     0              0.024946674    0.020052573  
    334500   0.21878164    -0.16140044     0              0.019022446    0.07238559   
    335000   0.21905816    -0.16886052     0              0.011790399    0.06607349   
    335500   0.2149764     -0.1707551      0              0.0065297205   0.05676755   
    336000   0.20702423    -0.17110469     0             -0.00037779874  0.092629248  
    336500   0.22594902    -0.17262396     0              0.013709656   -0.076296701  
    337000   0.21547037    -0.17246953     0              0.0052226419   0.0849937    
    337500   0.2212858     -0.17028455     0              0.012203444    0.03962971   
    338000   0.22812208    -0.17038922     0              0.017736453    0.0028567085 
    338500   0.22670603    -0.16705424     0              0.019903664   -0.0063101697 
    339000   0.22347918    -0.16626473     0              0.018032075    0.00051534771
    339500   0.22610635    -0.17072481     0              0.015738555   -0.02234137   
    340000   0.22881665    -0.16702412     0              0.021674349    0.083931693  
    340500   0.23192487    -0.17361314     0              0.017648594   -0.036156928  
    341000   0.21611052    -0.16416745     0              0.014052638   -0.042251382  
    341500   0.2237791     -0.17015931     0              0.014384836    0.061869057  
    342000   0.22903661    -0.17011681     0              0.01876305    -0.15450433   
    342500   0.22956505    -0.16569027     0              0.023625381   -0.094521738  
    343000   0.21958722    -0.15890059     0              0.022186631   -0.018284389  
    343500   0.21345879    -0.1612703      0              0.014762988    0.06302962   
    344000   0.21679881    -0.16829665     0              0.010491049    0.16250711   
    344500   0.22119495    -0.16488677     0              0.017526296    0.036262925  
    345000   0.23539325    -0.16439173     0              0.029730272   -0.12443271   
    345500   0.23743872    -0.15945657     0              0.036352271    0.15138296   
    346000   0.2517        -0.15915082     0              0.048418886   -0.04421433   
    346500   0.24745393    -0.15406071     0              0.050007392    0.02790347   
    347000   0.24742605    -0.15086542     0              0.053179683    0.1356708    
    347500   0.25491464    -0.14758474     0              0.062635979   -0.065764823  
    348000   0.2612948     -0.14924026     0              0.066241995   -0.012870326  
    348500   0.25261839    -0.15355617     0              0.0547709     -0.10126722   
    349000   0.25432246    -0.15449523     0              0.055237141    0.061289894  
    349500   0.24790793    -0.15674637     0              0.047696123    0.23401574   
    350000   0.23481102    -0.16009578     0              0.033546067   -0.098516933  
    350500   0.24193271    -0.15966879     0              0.039846112    0.1022391    
    351000   0.24229727    -0.16436766     0              0.035447887   -0.0044536675 
    351500   0.24197857    -0.16276209     0              0.036790634    0.11628479   
    352000   0.24465903    -0.1637813      0              0.037981919    0.14408369   
    352500   0.23952895    -0.16609445     0              0.031438142   -0.0094022815 
    353000   0.23934826    -0.16527131     0              0.03211228     0.015540206  
    353500   0.23715537    -0.16153993     0              0.034035241   -0.021609709  
    354000   0.24092629    -0.16225459     0              0.03643035    -0.0063085609 
    354500   0.23084752    -0.15629889     0              0.03407438    -0.053257551  
    355000   0.22597303    -0.15929454     0              0.027058873   -0.024779003  
    355500   0.21888944    -0.159129       0              0.021382787   -0.10010484   
    356000   0.21764984    -0.16363072     0              0.015858798    0.098441297  
    356500   0.21743403    -0.16530909     0              0.014002466    0.33613851   
    357000   0.2164253     -0.16498519     0              0.013494489    0.12085066   
    357500   0.21044142    -0.15490935     0              0.018635601    0.24173639   
    358000   0.21429158    -0.16137739     0              0.015342676    0.012008765  
    358500   0.21913263    -0.15678545     0              0.023926887    0.039331076  
    359000   0.22010898    -0.16021472     0              0.021302787   -0.087796599  
    359500   0.22325256    -0.16771838     0              0.016391547   -0.020618559  
    360000   0.22572245    -0.16938488     0              0.016761886    0.074559951  
    360500   0.23671881    -0.16981679     0              0.025398363    0.14268571   
    361000   0.23258663    -0.16439857     0              0.027408896   -0.11563099   
    361500   0.2253696     -0.16727572     0              0.018580066    0.00011890149
    362000   0.21208415    -0.170988       0              0.0039116611  -0.050500485  
    362500   0.22822936    -0.17228109     0              0.015933053    0.0056463532 
    363000   0.21817625    -0.16600636     0              0.013917278   -0.055199845  
    363500   0.22748707    -0.16724677     0              0.020355235    0.081102235  
    364000   0.23425361    -0.16084033     0              0.03234184     0.12922716   
    364500   0.24185327    -0.16206852     0              0.037380877    0.11930363   
    365000   0.23234072    -0.16036036     0              0.031244305    0.002117842  
    365500   0.22708338    -0.16136118     0              0.025907913    0.22402335   
    366000   0.2440643     -0.16102313     0              0.040249627   -0.0047632325 
    366500   0.26183845    -0.16108728     0              0.054843311   -0.074323707  
    367000   0.26110325    -0.15432689     0              0.060997403   -0.030560972  
    367500   0.25029395    -0.15747113     0              0.048939042    0.074783805  
    368000   0.24295455    -0.15607465     0              0.04428293    -0.075395313  
    368500   0.24754784    -0.15965524     0              0.044490295   -0.054250816  
    369000   0.24447985    -0.15840522     0              0.04321024    -0.019074648  
    369500   0.25564581    -0.14952875     0              0.061294954    0.16004051   
    370000   0.25051566    -0.15898489     0              0.047608124    0.026398291  
    370500   0.24580379    -0.15785851     0              0.044848754    0.042526021  
    371000   0.25630038    -0.15818108     0              0.053182431    0.069362114  
    371500   0.26352498    -0.14970882     0              0.067612601   -0.085130197  
    372000   0.26570829    -0.1557786      0              0.063343339    0.11320992   
    372500   0.25289651    -0.1528804      0              0.05567603    -0.082195194  
    373000   0.25048302    -0.15780533     0              0.048760762   -0.042028545  
    373500   0.2391254     -0.15189299     0              0.045306802   -0.093541449  
    374000   0.24138735    -0.1596681      0              0.039397057    0.14435342   
    374500   0.22196867    -0.16001643     0              0.023034706    0.11584772   
    375000   0.2266435     -0.16102007     0              0.025886261   -0.074438196  
    375500   0.22093192    -0.1619826      0              0.020213553   -0.0012541882 
    376000   0.23161707    -0.16250358     0              0.028504317   -0.20672477   
    376500   0.22918329    -0.15938803     0              0.029612796    0.025402061  
    377000   0.22742814    -0.16011319     0              0.027440213    0.28942068   
    377500   0.22320773    -0.16297735     0              0.021095597   -0.017514587  
    378000   0.22671804    -0.17097886     0              0.01598894    -0.025516247  
    378500   0.2213951     -0.16628782     0              0.016290312   -0.065389737  
    379000   0.2346959     -0.16758552     0              0.025961395    0.13052104   
    379500   0.22836044    -0.16691717     0              0.021405069   -0.065944635  
    380000   0.22517998    -0.16785542     0              0.017843993    0.10529441   
    380500   0.23449005    -0.16802752     0              0.025349634    0.068738911  
    381000   0.24555125    -0.17144388     0              0.031055124    0.065202042  
    381500   0.24185476    -0.16842705     0              0.031023567   -0.0069662813 
    382000   0.24617854    -0.16951967     0              0.033496651    0.14712654   
    382500   0.23047254    -0.16615316     0              0.023910871    0.023978688  
    383000   0.23569496    -0.17247935     0              0.021891459    0.22003219   
    383500   0.23851678    -0.17017081     0              0.026527075   -0.034067708  
    384000   0.23889841    -0.16711155     0              0.029901049    0.026148559  
[...]
   1896500   0.2602483     -0.12495794     0              0.089661292   -0.072650463  
   1897000   0.25910977    -0.11894015     0              0.094740179    0.19881545   
   1897500   0.25055106    -0.11948264     0              0.087139561    0.020395074  
   1898000   0.25529497    -0.11805092     0              0.092483447    0.095743874  
   1898500   0.24531615    -0.12235059     0              0.079954542    0.32075976   
   1899000   0.24403944    -0.11353017     0              0.087722098    0.10026546   
   1899500   0.2345455     -0.11825045     0              0.075172432    0.08298547   
   1900000   0.22364251    -0.12086662     0              0.063564882   -0.071568289  
   1900500   0.23107162    -0.12907508     0              0.061483001    0.070069339  
   1901000   0.22166073    -0.12981682     0              0.052980369    0.071559128  
   1901500   0.21877434    -0.12965622     0              0.050760649   -0.082730562  
   1902000   0.22127039    -0.13762077     0              0.044854518    0.051367276  
   1902500   0.22616537    -0.1351934      0              0.051318634   -0.010232512  
   1903000   0.23692661    -0.14212441     0              0.053262107   -0.0096602352 
   1903500   0.24390091    -0.13249493     0              0.068643091    0.06027262   
   1904000   0.25035139    -0.13237246     0              0.074085087   -0.08066391   
   1904500   0.26545573    -0.13071727     0              0.088196382   -0.012829035  
   1905000   0.26128148    -0.13046408     0              0.085007195   -0.063485324  
   1905500   0.25953166    -0.13356556     0              0.080462681    0.094843114  
   1906000   0.26666553    -0.1356594      0              0.084251943    0.023119888  
   1906500   0.27260337    -0.12777937     0              0.09702874     0.035462091  
   1907000   0.250986      -0.13067324     0              0.076307648    0.10143554   
   1907500   0.25026272    -0.13854435     0              0.067840074   -0.11655608   
   1908000   0.27810674    -0.12507723     0              0.10426935     0.010501506  
   1908500   0.27130485    -0.12543692     0              0.098300333    0.2143363    
   1909000   0.27296734    -0.13054034     0              0.094567931   -0.27052311   
   1909500   0.2940769     -0.12410202     0              0.11841468     0.17470844   
   1910000   0.27342113    -0.12481472     0              0.10066777     0.3832107    
   1910500   0.26203204    -0.12847361     0              0.087616625    0.29516756   
   1911000   0.26638955    -0.12523013     0              0.094453615    0.38013959   
   1911500   0.25761029    -0.13112758     0              0.081316167   -0.21116707   
   1912000   0.24466678    -0.12898422     0              0.072785391   -0.4003742    
   1912500   0.24242588    -0.12585099     0              0.074070614   -0.03606723   
   1913000   0.24785392    -0.13162576     0              0.072772197   -0.12396938   
   1913500   0.24077896    -0.12669337     0              0.071870072   -0.22718038   
   1914000   0.24499902    -0.13486188     0              0.067181722    0.34624074   
   1914500   0.23226021    -0.13252904     0              0.059009232   -0.23845272   
   1915000   0.255854      -0.1284087      0              0.082586696    0.0090672449 
   1915500   0.2498824     -0.13237058     0              0.0737002     -0.11783348   
   1916000   0.23844823    -0.13283847     0              0.063802881    0.19837633   
   1916500   0.23284174    -0.12864993     0              0.063367918    0.2572907    
   1917000   0.24137179    -0.13134033     0              0.067712      -0.03277414   
   1917500   0.2319177     -0.13359563     0              0.057660188    0.33472575   
   1918000   0.22158256    -0.1355994      0              0.047133326   -0.075784271  
   1918500   0.22823293    -0.13882716     0              0.049389933   -0.50225866   
   1919000   0.23089034    -0.14120404     0              0.049204538    0.025520818  
   1919500   0.23812704    -0.13921162     0              0.057164856    0.09412055   
   1920000   0.23713968    -0.1364718      0              0.059090428    0.37190353   
   1920500   0.24074028    -0.14014285     0              0.058388686    0.68539062   
   1921000   0.23626089    -0.14084873     0              0.053988784   -0.27746834   
   1921500   0.23184331    -0.13396981     0              0.05722465     0.0042791572 
   1922000   0.23482081    -0.13329227     0              0.060357657   -0.18913016   
   1922500   0.2460904     -0.13679018     0              0.066153447   -0.32415536   
   1923000   0.24197388    -0.12931659     0              0.070232267    0.54395035   
   1923500   0.24865801    -0.12986478     0              0.075196289    0.48894409   
   1924000   0.25047355    -0.13062374     0              0.075934549   -0.083246141  
   1924500   0.26205978    -0.12771085     0              0.08840226     0.038531161  
   1925000   0.26287642    -0.12866329     0              0.088123285    0.12034674   
   1925500   0.24834145    -0.13072668     0              0.074073325    0.30997094   
   1926000   0.25416005    -0.12444277     0              0.085155657    0.0999752    
   1926500   0.2468785     -0.12979579     0              0.073797763   -0.27265803   
   1927000   0.24046911    -0.12695254     0              0.071355367   -0.22654608   
   1927500   0.25634337    -0.12272625     0              0.088672702    0.041875017  
   1928000   0.25615098    -0.12911232     0              0.082127981   -0.096751198  
   1928500   0.26029276    -0.13230639     0              0.082349511   -0.032992943  
   1929000   0.26203713    -0.1239148      0              0.092179639    0.023294244  
   1929500   0.26037183    -0.12442772     0              0.09029339     0.13559978   
   1930000   0.26081626    -0.12547543     0              0.089612191    0.31019219   
   1930500   0.27193394    -0.12318106     0              0.10107499    -0.16820771   
   1931000   0.27133933    -0.11944439     0              0.1043213      0.17654289   
   1931500   0.27479203    -0.12696246     0              0.099650568   -0.21157774   
   1932000   0.2600057     -0.12983533     0              0.084583847    0.0010499102 
   1932500   0.25667046    -0.13166397     0              0.080004726   -0.03282018   
   1933000   0.25037067    -0.13139727     0              0.075076175    0.13431982   
   1933500   0.24982766    -0.12724426     0              0.078781381    0.005844163  
   1934000   0.24075363    -0.12556133     0              0.072981225   -0.087719047  
   1934500   0.23876093    -0.13133384     0              0.065565388    0.19490845   
   1935000   0.24312825    -0.13463191     0              0.065868918    0.08613334   
   1935500   0.23124743    -0.13387305     0              0.056830008    0.25546158   
   1936000   0.23287287    -0.13671813     0              0.055325383    0.15440502   
   1936500   0.24259264    -0.12998898     0              0.070070154    0.083169154  
   1937000   0.25130713    -0.13595875     0              0.071286971   -0.25555923   
   1937500   0.25344412    -0.1416016      0              0.067406432    0.09815761   
   1938000   0.24984392    -0.13987909     0              0.066159963    0.10217326   
   1938500   0.25759025    -0.1335045      0              0.078922728    0.086714756  
   1939000   0.24515843    -0.1319632      0              0.070211857   -0.06684576   
   1939500   0.25139437    -0.1324992      0              0.074818463    0.02610945   
   1940000   0.25340854    -0.13121547     0              0.077763218    0.044251862  
   1940500   0.24830879    -0.1379422      0              0.066830867    0.0043706309 
   1941000   0.24775413    -0.13661027     0              0.067705384    0.35834874   
   1941500   0.24548932    -0.12828578     0              0.074162162    0.11561716   
   1942000   0.24905851    -0.1276691      0              0.077722241   -0.24945717   
   1942500   0.24538921    -0.12879432     0              0.07357106    -0.10302694   
   1943000   0.24261977    -0.12948053     0              0.070600969   -0.18269068   
   1943500   0.23352611    -0.1261598      0              0.066422429   -0.060235364  
   1944000   0.23888867    -0.12957196     0              0.067432615    0.12365433   
   1944500   0.22427121    -0.1259326      0              0.059017371   -0.12765215   
   1945000   0.22954586    -0.13280479     0              0.056495029   -0.021311761  
   1945500   0.23197861    -0.13236558     0              0.058940467    0.21027779   
   1946000   0.23119518    -0.13557296     0              0.055087014    0.049835332  
   1946500   0.2138195     -0.13046042     0              0.045870336    0.25319893   
   1947000   0.22511021    -0.13326402     0              0.05237786     0.06021528   
   1947500   0.21845716    -0.13213376     0              0.048021534   -0.13252769   
   1948000   0.21595894    -0.13608136     0              0.042013724   -0.14188963   
   1948500   0.21303988    -0.13499209     0              0.040695738    0.078114222  
   1949000   0.22259709    -0.14172288     0              0.041846493    0.0077188706 
   1949500   0.23534662    -0.13820306     0              0.055880482    0.24844599   
   1950000   0.23661695    -0.13633484     0              0.05879631    -0.28076671   
   1950500   0.23502757    -0.13846072     0              0.055359711    0.25051558   
   1951000   0.2331336     -0.14228916     0              0.049969376    0.065072208  
   1951500   0.24409117    -0.14498863     0              0.056306295    0.14117038   
   1952000   0.24544797    -0.13933986     0              0.063073975   -0.0024930318 
   1952500   0.24293054    -0.14526188     0              0.055075906   -0.1676873    
   1953000   0.24628052    -0.13892644     0              0.064173976    0.218882     
   1953500   0.23794797    -0.1333272      0              0.062901602   -0.11853162   
   1954000   0.24991694    -0.13515359     0              0.07094568    -0.10267171   
   1954500   0.24662067    -0.13544244     0              0.067938484    0.1517831    
   1955000   0.240938      -0.13574244     0              0.062952154    0.10592738   
   1955500   0.23497157    -0.12994813     0              0.063826124    0.20567673   
   1956000   0.22663399    -0.13855056     0              0.048347931   -0.22174401   
   1956500   0.22890141    -0.13958055     0              0.049187815   -0.0067741729 
   1957000   0.22136214    -0.13787676     0              0.044674185    0.0038319837 
   1957500   0.23463448    -0.13011883     0              0.063377437   -0.20801365   
   1958000   0.23205843    -0.13668128     0              0.05469059     0.035163648  
   1958500   0.23106195    -0.13756359     0              0.052986511    0.1949571    
   1959000   0.23743326    -0.13431639     0              0.061487938   -0.12689242   
   1959500   0.23581231    -0.12933299     0              0.065134593    0.31744868   
   1960000   0.23669877    -0.13300845     0              0.062190169   -0.10692648   
   1960500   0.24782701    -0.13135733     0              0.073018433    0.11011782   
   1961000   0.25433126    -0.12908296     0              0.080656669    0.14224801   
   1961500   0.26244041    -0.13436171     0              0.082065298    0.13430649   
   1962000   0.24839651    -0.13465965     0              0.070185763   -0.01680198   
   1962500   0.24966584    -0.13338353     0              0.072508659    0.15387922   
   1963000   0.25334603    -0.12420697     0              0.084720173   -0.031060672  
   1963500   0.24825593    -0.1258018      0              0.078927675    0.0049790128 
   1964000   0.25125255    -0.12260992     0              0.084590783    0.069488093  
   1964500   0.24971787    -0.12246029     0              0.083474804   -0.066472119  
   1965000   0.24611384    -0.12764926     0              0.075313704    0.18766272   
   1965500   0.24078262    -0.13290009     0              0.065666373    0.036343898  
   1966000   0.23543967    -0.13041373     0              0.063746551    0.0758683    
   1966500   0.24073195    -0.13568617     0              0.062838507   -0.2641539    
   1967000   0.24507709    -0.13448518     0              0.067622802   -0.14978624   
   1967500   0.23783741    -0.1336331      0              0.062504525    0.10182441   
   1968000   0.25570396    -0.13313679     0              0.07773487     0.2012773    
   1968500   0.26714421    -0.1322114      0              0.088094704   -0.055351347  
   1969000   0.27773106    -0.12482291     0              0.10421385    -0.16601214   
   1969500   0.2710735     -0.11937019     0              0.10417628     0.18328126   
   1970000   0.27155061    -0.12743955     0              0.096500377    0.046253542  
   1970500   0.2761583     -0.12796664     0              0.099773119    0.16377868   
   1971000   0.26761332    -0.1341114      0              0.086581559   -0.0090147996 
   1971500   0.25450976    -0.13498394     0              0.074902898    0.32049976   
   1972000   0.26078515    -0.1328731      0              0.082188866   -0.17016557   
   1972500   0.26320478    -0.13061562     0              0.086441742   -0.0096491514 
   1973000   0.25108564    -0.1292383      0              0.077824751   -0.25113415   
   1973500   0.2565438     -0.13166064     0              0.079903598    0.056608837  
   1974000   0.25047966    -0.12410143     0              0.082461898    0.15895899   
   1974500   0.24621338    -0.13220175     0              0.070843293    0.26651398   
   1975000   0.25942684    -0.12887109     0              0.085070721    0.20715045   
   1975500   0.29123909    -0.12486258     0              0.11531387     0.15288882   
   1976000   0.30625957    -0.11195204     0              0.14061136     0.193586     
   1976500   0.30147928    -0.11535227     0              0.13326897    -0.18356707   
   1977000   0.30776751    -0.10757559     0              0.14623137    -0.19276057   
   1977500   0.2966326     -0.11442075     0              0.13020357     0.17153583   
   1978000   0.28100344    -0.11766569     0              0.11406971     0.17857789   
   1978500   0.28802201    -0.11892645     0              0.11859696     0.013481702  
   1979000   0.28116869    -0.1186726      0              0.11319908     0.085948485  
   1979500   0.2783042     -0.1065637      0              0.12294572     0.011508213  
   1980000   0.28447317    -0.11065917     0              0.12393762     0.12557587   
   1980500   0.28297548    -0.09610442     0              0.13725726     0.18744006   
   1981000   0.30321505    -0.11076855     0              0.13928412     0.30783443   
   1981500   0.28574463    -0.11164787     0              0.12399745    -0.030016117  
   1982000   0.27922473    -0.10571776     0              0.12455079     0.11004178   
   1982500   0.26330757    -0.10758002     0              0.10956212     0.12658903   
   1983000   0.27402689    -0.10884354     0              0.11713851    -0.036228677  
   1983500   0.26405365    -0.11735583     0              0.10040157     0.17935231   
   1984000   0.26396587    -0.11544107     0              0.10224394    -0.10212364   
   1984500   0.26728882    -0.11604867     0              0.10437668     0.0017173465 
   1985000   0.25299779    -0.11013065     0              0.098509298    0.051293412  
   1985500   0.26768225    -0.11401746     0              0.10673234     0.045497848  
   1986000   0.24815042    -0.10662199     0              0.098020481   -0.12498871   
   1986500   0.25503016    -0.1118811      0              0.098434889   -0.036051896  
   1987000   0.25632903    -0.11612223     0              0.095264898   -0.29302551   
   1987500   0.25709598    -0.11875088     0              0.09326873     0.14499538   
   1988000   0.23890225    -0.12079866     0              0.076217107    0.062243912  
   1988500   0.23816054    -0.12259427     0              0.073809828   -0.035696034  
   1989000   0.24676572    -0.11794282     0              0.085557725    0.13192371   
   1989500   0.25188477    -0.1152309      0              0.092491182    0.16683636   
   1990000   0.25216949    -0.11940237     0              0.088554517    0.21211192   
   1990500   0.24341534    -0.11575512     0              0.084982464   -0.046057931  
   1991000   0.23979438    -0.11744689     0              0.080304595   -0.068377005  
   1991500   0.23964766    -0.11427217     0              0.083358319   -0.077485379  
   1992000   0.25136758    -0.11949547     0              0.087800102    0.36221367   
   1992500   0.25208462    -0.12528204     0              0.082604853   -0.018847006  
   1993000   0.27478549    -0.12063173     0              0.10597591    -0.02515258   
   1993500   0.2628835     -0.11303772     0              0.10375469     0.10938968   
   1994000   0.26530047    -0.11927703     0              0.099508584    0.027807014  
   1994500   0.26272537    -0.1221129      0              0.094549102   -0.13552497   
   1995000   0.26744714    -0.12258188     0              0.097974029    0.1065486    
   1995500   0.26076316    -0.12453948     0              0.090504344    0.38871356   
   1996000   0.26119204    -0.12018394     0              0.095213567   -0.020538135  
   1996500   0.27944155    -0.11839928     0              0.11204808    -0.10544601   
   1997000   0.27408638    -0.1167305      0              0.1093006     -0.018031473  
   1997500   0.26056844    -0.12084434     0              0.094038902    0.049548661  
   1998000   0.25616816    -0.1214572      0              0.089797267    0.01871495   
   1998500   0.26758526    -0.11833948     0              0.10233034     0.26129984   
   1999000   0.25859798    -0.11961019     0              0.093648083   -0.00076263004
   1999500   0.25144565    -0.11484653     0              0.092513421    0.12292247   
   2000000   0.24346703    -0.11550455     0              0.085275662    0.12768194   
   2000001   0.24347099    -0.11569167     0              0.085091816    0.039788611  
Loop time of 450.382 on 4 procs for 1000000 steps with 1520 atoms

Performance: 191837.062 tau/day, 2220.336 timesteps/s, 3.375 Matom-step/s
91.4% CPU use with 4 MPI tasks x 1 OpenMP threads

MPI task timing breakdown:
Section |  min time  |  avg time  |  max time  |%varavg| %total
---------------------------------------------------------------
Pair    | 61.542     | 66.505     | 72.092     |  61.0 | 14.77
Bond    | 0.18385    | 0.20083    | 0.21415    |   3.0 |  0.04
Neigh   | 11.894     | 11.896     | 11.899     |   0.1 |  2.64
Comm    | 53.205     | 58.827     | 63.849     |  65.6 | 13.06
Output  | 1.7172     | 1.7619     | 1.8058     |   2.5 |  0.39
Modify  | 298.25     | 298.81     | 299.27     |   2.3 | 66.35
Other   |            | 12.38      |            |       |  2.75

Nlocal:            380 ave         403 max         358 min
Histogram: 1 0 0 0 1 1 0 0 0 1
Nghost:         976.75 ave        1007 max         927 min
Histogram: 1 0 0 0 0 1 0 0 0 2
Neighs:              0 ave           0 max           0 min
Histogram: 4 0 0 0 0 0 0 0 0 0

Total # of neighbors = 0
Ave neighs/atom = 0
Ave special neighs/atom = 2.0657895
Neighbor list builds = 5673
Dangerous builds = 0

# Write data for deformation

write_data data.hydrogel
System init for write_data ...
WARNING: Using a manybody potential with bonds/angles/dihedrals and special_bond exclusions (src/pair.cpp:243)
Hybrid pair style last /omp style sw/omp
Last active /omp style is pair_style sw/omp
WARNING: More than one fix rigid command (src/RIGID/fix_rigid_small.cpp:529)
WARNING: More than one fix rigid command (src/RIGID/fix_rigid_small.cpp:529)
WARNING: One or more atoms are time integrated more than once (src/modify.cpp:296)
Total wall time: 0:14:56
