LAMMPS (29 Aug 2024)
OMP_NUM_THREADS environment is not set. Defaulting to 1 thread. (src/comm.cpp:98)
  using 1 OpenMP thread(s) per MPI task
package omp 0
using multi-threaded neighbor list subroutines
# Input Script of lammps for assembly simulation of polimeric network.

# Fco. Vazquez and Felipe Benavides

# Initialization
units lj
dimension 3
boundary p p p

# Styles of atoms and that stuff
atom_style bond
bond_style zero nocoeff
pair_style hybrid/overlay/omp zero 0.0 lj/cut/omp 1.12 table/omp linear 5000000 threebody/table
#pair_style hybrid/overlay/omp zero 0.0 lj/cut/omp 1.12 sw/omp threebody off threebody/table
newton on

# Create simulaiton box
region simulation_box block -$L $L -$L $L -$L $L
region simulation_box block -6.932675 $L -$L $L -$L $L
region simulation_box block -6.932675 6.932675 -$L $L -$L $L
region simulation_box block -6.932675 6.932675 -6.932675 $L -$L $L
region simulation_box block -6.932675 6.932675 -6.932675 6.932675 -$L $L
region simulation_box block -6.932675 6.932675 -6.932675 6.932675 -6.932675 $L
region simulation_box block -6.932675 6.932675 -6.932675 6.932675 -6.932675 6.932675
# N-atom-types region-ID keyword value Is necesesary the extra/special/per/atom (# of special neighbors per atom)
create_box 4 simulation_box     bond/types 1     extra/bond/per/atom 4     extra/special/per/atom 5
Created orthogonal box = (-6.932675 -6.932675 -6.932675) to (6.932675 6.932675 6.932675)
  2 by 1 by 2 MPI processor grid

# Atom types
mass 1 1.0      # CL
mass 2 1.0      # MO
mass 3 0.5      # PA
mass 4 0.5      # PB

# Coefficients
include potential.in
# Script with the pair-wise interaction and bonds between particles

bond_coeff * nocoeff
pair_coeff 1 3 zero
pair_coeff 1 4 zero
pair_coeff 2 3 zero
pair_coeff 2 4 zero
pair_coeff 3 3 zero
pair_coeff 1 1 lj/cut/omp 1.0 1.0 1.12
pair_coeff 2 2 lj/cut/omp 1.0 1.0 1.12
pair_coeff 1 2 lj/cut/omp 1.0 1.0 1.12
pair_coeff 3 4 table/omp sysFiles/pachTab.table POT 0.6 # sw/omp sysFiles/patchyPot.sw NULL NULL PA PB
Reading pair table potential file sysFiles/pachTab.table with DATE: 2024-07-08
WARNING: 5115 of 1000000 force values in table POT are inconsistent with -dE/dr.
WARNING:  Should only be flagged at inflection points (src/pair_table.cpp:466)
pair_coeff 4 4 table/omp sysFiles/pachTab.table POT 0.6 # sw/omp sysFiles/patchyPot.sw NULL NULL PA PB
Reading pair table potential file sysFiles/pachTab.table with DATE: 2024-07-08
WARNING: 5115 of 1000000 force values in table POT are inconsistent with -dE/dr.
WARNING:  Should only be flagged at inflection points (src/pair_table.cpp:466)
pair_coeff * * threebody/table swapMech.3b NULL NULL PA PB
pair_modify pair lj/cut/omp shift yes


# Molecules
include molecules.in
# Script with all molecule information and create groups for computes

# Read the molecule information
molecule CL sysFiles/molecule.patchy.CL
Read molecule template CL:
# Patchy Cross-Linker
  1 molecules
  0 fragments
  5 atoms with max type 3
  4 bonds with max type 1
  0 angles with max type 0
  0 dihedrals with max type 0
  0 impropers with max type 0
molecule MO sysFiles/molecule.patchy.MO
Read molecule template MO:
# Patchy Monomer
  1 molecules
  0 fragments
  3 atoms with max type 4
  2 bonds with max type 1
  0 angles with max type 0
  0 dihedrals with max type 0
  0 impropers with max type 0

# Introduce the molecules
# ID style args keyword arg
region spawn_box block -$L $L -$L $L -$L $L
region spawn_box block -6.932675 $L -$L $L -$L $L
region spawn_box block -6.932675 6.932675 -$L $L -$L $L
region spawn_box block -6.932675 6.932675 -6.932675 $L -$L $L
region spawn_box block -6.932675 6.932675 -6.932675 6.932675 -$L $L
region spawn_box block -6.932675 6.932675 -6.932675 6.932675 -6.932675 $L
region spawn_box block -6.932675 6.932675 -6.932675 6.932675 -6.932675 6.932675

# create_atoms type style args keyword values
# style_random: N seed region-ID
# keyword_mol: template-ID seed
# keyword_overlap: overlap value = only insert if at least this distance from all existing atoms
# keyword_maxtry: maxtry value = number of attempts to insert a particle before failure
create_atoms 0 random ${NCL} ${seed1} spawn_box mol CL ${seed1} overlap 1.0 maxtry 5000 #xls
create_atoms 0 random 10 ${seed1} spawn_box mol CL ${seed1} overlap 1.0 maxtry 5000 
create_atoms 0 random 10 1234 spawn_box mol CL ${seed1} overlap 1.0 maxtry 5000 
create_atoms 0 random 10 1234 spawn_box mol CL 1234 overlap 1.0 maxtry 5000 
Created 50 atoms
  using lattice units in orthogonal box = (-6.932675 -6.932675 -6.932675) to (6.932675 6.932675 6.932675)
  create_atoms CPU = 0.002 seconds
create_atoms 0 random ${NMO} ${seed2} spawn_box mol MO ${seed2} overlap 1.0 maxtry 5000 #mon
create_atoms 0 random 490 ${seed2} spawn_box mol MO ${seed2} overlap 1.0 maxtry 5000 
create_atoms 0 random 490 4321 spawn_box mol MO ${seed2} overlap 1.0 maxtry 5000 
create_atoms 0 random 490 4321 spawn_box mol MO 4321 overlap 1.0 maxtry 5000 
Created 1470 atoms
  using lattice units in orthogonal box = (-6.932675 -6.932675 -6.932675) to (6.932675 6.932675 6.932675)
  create_atoms CPU = 0.234 seconds

# Create patchy particles
group CrossLinker type 1 3
50 atoms in group CrossLinker
group Monomer type 2 4
1470 atoms in group Monomer
group Patches type 3 4
1020 atoms in group Patches
group CL type 1
10 atoms in group CL
group MO type 2
490 atoms in group MO
group PA type 3
40 atoms in group PA
group CM type 1 2
500 atoms in group CM

# Fix rigid bodies
fix frCL CrossLinker rigid/small/omp molecule
  create bodies CPU = 0.000 seconds
  10 rigid bodies with 50 atoms
  0.46400431 = max distance from body owner to body atom
fix frMO Monomer rigid/small/omp molecule
  create bodies CPU = 0.000 seconds
  490 rigid bodies with 1470 atoms
  0.5 = max distance from body owner to body atom

# Neighbor list
neighbor 1.12 bin # extra-distance style
neigh_modify exclude molecule/intra CrossLinker
neigh_modify exclude molecule/intra Monomer

# COMPUTES

# Compute global kinetic and potential energy and temperature
compute t all temp
compute tCM CM temp
compute ep all pe
compute ek all ke
compute ekCM CM ke
compute stressVirial all pressure t ke pair
compute wcaPair all pair lj/cut/omp epair
compute patchPair all pair table/omp epair
compute swapPair all pair threebody/table epair
compute disc CM displace/atom
compute daux CM chunk/atom type pbc yes
compute dis CM reduce/chunk daux sum c_disc[4]
#compute disM CM reduce/chunk daux sum c_disc[4]

# Energy minimization
minimize 1.0e-4 1.0e-6 1000 10000
WARNING: Using a manybody potential with bonds/angles/dihedrals and special_bond exclusions (src/pair.cpp:243)
Hybrid pair style last /omp style table/omp
Last active /omp style is pair_style table/omp
WARNING: More than one fix rigid command (src/RIGID/fix_rigid_small.cpp:529)
WARNING: More than one fix rigid command (src/RIGID/fix_rigid_small.cpp:529)
Neighbor list info ...
  update: every = 1 steps, delay = 0 steps, check = yes
  max neighbors/atom: 2000, page size: 100000
  master list distance cutoff = 2.24
  ghost atom cutoff = 2.24
  binsize = 1.12, bins = 13 13 13
  6 neighbor lists, perpetual/occasional/extra = 6 0 0
  (1) pair zero, perpetual, skip from (5)
      attributes: half, newton on, omp
      pair build: skip/omp
      stencil: none
      bin: none
  (2) pair lj/cut/omp, perpetual, skip from (5)
      attributes: half, newton on, omp
      pair build: skip/omp
      stencil: none
      bin: none
  (3) pair table/omp, perpetual, skip trim from (5)
      attributes: half, newton on, omp, cut 1.7200000000000002
      pair build: skip/trim/omp
      stencil: none
      bin: none
  (4) pair threebody/table, perpetual, skip from (6)
      attributes: full, newton on, omp, cut 1.7200000000000002
      pair build: skip/omp
      stencil: none
      bin: none
  (5) neighbor class addition, perpetual
      attributes: half, newton on, omp
      pair build: half/bin/newton/omp
      stencil: half/bin/3d
      bin: standard
  (6) neighbor class addition, perpetual
      attributes: full, newton on, omp, cut 1.7200000000000002
      pair build: full/bin/omp
      stencil: full/bin/3d
      bin: standard
WARNING: Cannot count rigid body degrees-of-freedom before bodies are fully initialized (src/RIGID/fix_rigid_small.cpp:1129)
WARNING: Cannot count rigid body degrees-of-freedom before bodies are fully initialized (src/RIGID/fix_rigid_small.cpp:1129)
WARNING: Cannot count rigid body degrees-of-freedom before bodies are fully initialized (src/RIGID/fix_rigid_small.cpp:1129)
WARNING: Cannot count rigid body degrees-of-freedom before bodies are fully initialized (src/RIGID/fix_rigid_small.cpp:1129)
WARNING: Cannot count rigid body degrees-of-freedom before bodies are fully initialized (src/RIGID/fix_rigid_small.cpp:1129)
WARNING: Cannot count rigid body degrees-of-freedom before bodies are fully initialized (src/RIGID/fix_rigid_small.cpp:1129)
Per MPI rank memory allocation (min/avg/max) = 20.01 | 20.01 | 20.02 Mbytes
   Step          Temp          E_pair         E_mol          TotEng         Press     
         0   0              0.00067516832  0              0.00067516832  0.00636608   
         1   0              0.00067516832  0              0.00067516832  0.00636608   
Loop time of 0.000315918 on 4 procs for 1 steps with 1520 atoms

98.3% CPU use with 4 MPI tasks x 1 OpenMP threads

Minimization stats:
  Stopping criterion = quadratic factors are zero
  Energy initial, next-to-last, final = 
    0.000675168319707251 0.000675168319707251 0.000675168319707251
  Force two-norm initial, final = 21.154727 21.154727
  Force max component initial, final = 6.3589627 6.3589627
  Final line search alpha, max atom move = 0.015725835 0.1
  Iterations, force evaluations = 1 2

MPI task timing breakdown:
Section |  min time  |  avg time  |  max time  |%varavg| %total
---------------------------------------------------------------
Pair    | 8.5811e-05 | 9.5964e-05 | 0.00011932 |   0.0 | 30.38
Bond    | 4.9e-07    | 6.185e-07  | 7.79e-07   |   0.0 |  0.20
Neigh   | 0          | 0          | 0          |   0.0 |  0.00
Comm    | 0.00011357 | 0.00013511 | 0.00014753 |   0.0 | 42.77
Output  | 0          | 0          | 0          |   0.0 |  0.00
Modify  | 9.342e-06  | 1.0095e-05 | 1.087e-05  |   0.0 |  3.20
Other   |            | 7.413e-05  |            |       | 23.47

Nlocal:            380 ave         382 max         378 min
Histogram: 1 0 0 0 0 2 0 0 0 1
Nghost:        1000.75 ave        1005 max         993 min
Histogram: 1 0 0 0 0 0 0 1 1 1
Neighs:              0 ave           0 max           0 min
Histogram: 4 0 0 0 0 0 0 0 0 0

Total # of neighbors = 0
Ave neighs/atom = 0
Ave special neighs/atom = 2.0657895
Neighbor list builds = 0
Dangerous builds = 0

# DUMPS and FIXES

thermo ${sstep}
thermo 500

# Save atom positions
dump dumpID all atom ${sstep} info/dumps/assembly/patchyParticles_assembly.*.dumpf
dump dumpID all atom 500 info/dumps/assembly/patchyParticles_assembly.*.dumpf
dump_modify dumpID pbc yes # remap atoms via periodic boundary conditions

# Save global energies and temperature
group Energy empty
0 atoms in group Energy
fix fixEng Energy ave/time 1 10 10 c_t c_ep c_ek c_tCM file info/energy_assembly.fixf

group PairE1 empty
0 atoms in group PairE1
group PairE2 empty
0 atoms in group PairE2
group PairE3 empty
0 atoms in group PairE3

fix fixwca PairE1 ave/time 1 10 10 c_wcaPair file info/wcaPair_assembly.fixf
fix fixpatch PairE2 ave/time 1 10 10 c_patchPair file info/patchPair_assembly.fixf
fix fixswap PairE3 ave/time 1 10 10 c_swapPair file info/swapPair_assembly.fixf

# Save Atom displacement
group Displ empty
0 atoms in group Displ
fix fixDispl Displ ave/time 1 ${Nave} ${Nave} c_dis[1] c_dis[2] c_dis[3] c_dis[4] file info/cmdisplacement_assembly.fixf
fix fixDispl Displ ave/time 1 100000 ${Nave} c_dis[1] c_dis[2] c_dis[3] c_dis[4] file info/cmdisplacement_assembly.fixf
fix fixDispl Displ ave/time 1 100000 100000 c_dis[1] c_dis[2] c_dis[3] c_dis[4] file info/cmdisplacement_assembly.fixf

# Save Stress tensor
group Stress empty
0 atoms in group Stress
fix fixStress5 Stress ave/time 1 ${Nave} ${Nave} c_stressVirial[*] file info/stressVirial_assembly.fixf
fix fixStress5 Stress ave/time 1 100000 ${Nave} c_stressVirial[*] file info/stressVirial_assembly.fixf
fix fixStress5 Stress ave/time 1 100000 100000 c_stressVirial[*] file info/stressVirial_assembly.fixf

# RUN SIMULATION

# Brownian Dynamics using Langevin Thermostat

# Set the time integrator
fix VelVerlet all nve/omp # Use Velocity Verlet integrator
timestep ${tstep}
timestep 0.001

# First elevate the temperature
fix ThermoLng all langevin 0.0 ${temp} ${damp} 12345 # Brownian Dynamics: langevin + nve
fix ThermoLng all langevin 0.0 0.05 ${damp} 12345 
fix ThermoLng all langevin 0.0 0.05 1 12345 
run 1000000
WARNING: Using a manybody potential with bonds/angles/dihedrals and special_bond exclusions (src/pair.cpp:243)
Hybrid pair style last /omp style table/omp
Last active /omp style is pair_style table/omp
WARNING: More than one fix rigid command (src/RIGID/fix_rigid_small.cpp:529)
WARNING: More than one fix rigid command (src/RIGID/fix_rigid_small.cpp:529)
WARNING: One or more atoms are time integrated more than once (src/modify.cpp:296)
WARNING: Computing temperature of portions of rigid bodies (src/RIGID/fix_rigid_small.cpp:1178)
WARNING: Computing temperature of portions of rigid bodies (src/RIGID/fix_rigid_small.cpp:1178)
Per MPI rank memory allocation (min/avg/max) = 20.32 | 20.33 | 20.33 Mbytes
   Step          Temp          E_pair         E_mol          TotEng         Press     
         1   0              0.00067516832  0              0.00067516832  0.021123967  
       500   0.00035952529  0              0              0.0002964901  -0.002371193  
      1000   0.00015858646  3.6216827e-07  0              0.00013114383 -0.0073469111 
      1500   9.9034291e-05  0              0              8.1670713e-05 -0.011984611  
      2000   9.1797e-05     0              0              7.5702329e-05  0.0095307797 
      2500   0.00010171469  0              0              8.3881164e-05  0.00066157764
      3000   0.00012179843  2.563808e-07   0              0.00010070002 -0.032853804  
      3500   0.00014387161  0              0              0.00011864675  0.020184223  
      4000   0.00017681409  0              0              0.00014581346  0.0017651131 
      4500   0.00019251553  0              0              0.00015876198  0.0061737857 
      5000   0.00021586579  0              0              0.00017801827  0.0040573602 
      5500   0.0002595638   7.028814e-08   0              0.00021412504 -0.023906076  
      6000   0.00027442865  0              0              0.00022631336 -0.025119729  
      6500   0.00028989197  0              0              0.00023906552 -0.0075973777 
      7000   0.00031462893  0              0              0.00025946537  0.0082170499 
      7500   0.00034601217  0              0              0.00028534622 -0.026382027  
      8000   0.00037245883  0              0              0.00030715601 -0.0039402865 
      8500   0.00042462783  1.3582799e-07  0              0.00035031411  0.010012875  
      9000   0.00043540613  0              0              0.00035906683  0.04157802   
      9500   0.00045013918  1.4088348e-06  0              0.00037262558  0.031776308  
     10000   0.00048729808  0              0              0.00040186062 -0.043390587  
     10500   0.00050907326  1.3394972e-08  0              0.00041983138  0.010169468  
     11000   0.00050785873  0              0              0.00041881639 -0.035558981  
     11500   0.00057005826  3.7716841e-07  0              0.00047048771  0.0015388774 
     12000   0.00057383823  3.3059284e-07  0              0.00047355837 -0.048060931  
     12500   0.00056424903  0              0              0.00046531984  0.023700007  
     13000   0.00058628203  6.9663038e-07  0              0.00048418645 -0.022337564  
     13500   0.0006203152   2.4937595e-06  0              0.00051404975 -0.0077971161 
     14000   0.00065855851  0              0              0.00054309414  0.024164803  
     14500   0.00070266233  0              0              0.00057946529 -0.019267548  
     15000   0.00072207266  9.7399419e-07  0              0.00059644641 -0.017371478  
     15500   0.00072754735  0              0              0.00059998724  0.0021659159 
     16000   0.00071653649  6.2159757e-07  0              0.0005915285  -0.042027663  
     16500   0.00079105905  1.0671544e-06  0              0.00065343065 -0.029527165  
     17000   0.0008248192   0              0              0.00068020452  0.012746637  
     17500   0.00082381693  2.6549041e-07  0              0.00067964346  0.04195015   
     18000   0.00084967299  0              0              0.00070070072 -0.057237924  
     18500   0.00089175223  1.3762361e-06  0              0.00073677849  0.014940395  
     19000   0.00092936779 -6.5789474e-24  0              0.00076642272 -0.0034430077 
     19500   0.00096986664  1.7454597e-07  0              0.00079999549 -0.065548755  
     20000   0.00104522     2.4633741e-06  0              0.00086442606 -0.067360135  
     20500   0.0010693692   7.4455953e-07  0              0.00088262238 -0.0015955042 
     21000   0.0013308204  -0.00047105168  0              0.00062643736 -0.011426647  
     21500   0.0013177226  -0.00090800692  0              0.00017868073  0.088398435  
     22000   0.0013441144  -0.0012833566   0             -0.00017490433 -0.065284692  
     22500   0.0011190964  -0.0012241441   0             -0.0003012577   0.038869104  
     23000   0.0011682462  -0.0012820391   0             -0.0003186202   0.06145285   
     23500   0.0011779381  -0.0013074086   0             -0.00033599711 -0.034627903  
     24000   0.0011775005  -0.0013096662   0             -0.00033861561 -0.08523265   
     24500   0.0012127082  -0.0013082454   0             -0.00030816003 -0.0028641676 
     25000   0.0012467222  -0.0013143359   0             -0.00028620022  0.027442018  
     25500   0.0012797058  -0.0013148465   0             -0.00025951023  0.075500967  
     26000   0.0013178249  -0.0013151661   0             -0.00022839409 -0.019422265  
     26500   0.0013761796  -0.0013156411   0             -0.00018074558  0.041745182  
     27000   0.0013595549  -0.0013134255   0             -0.00019223998 -0.047098515  
     27500   0.0013528539  -0.0013323317   0             -0.00021667225  0.0011771697 
     28000   0.0015214331  -0.0017544261   0             -0.00049974422  0.015343784  
     28500   0.0018101052  -0.0024496388   0             -0.00095689742 -0.06629784   
     29000   0.0021345241  -0.0033849831   0             -0.0016247029  -0.011368666  
     29500   0.0019566501  -0.0038535868   0             -0.002239994    0.070332711  
     30000   0.0019294261  -0.0044324537   0             -0.0028413119  -0.013926032  
     30500   0.0016621925  -0.0044854395   0             -0.0031146775  -0.029053239  
     31000   0.001846657   -0.0049887001   0             -0.0034658155  -0.0085737811 
     31500   0.0018219292  -0.0054406659   0             -0.0039381736   0.04770991   
     32000   0.0018532219  -0.0057605674   0             -0.004232269    0.060418773  
     32500   0.0017221586  -0.0058704466   0             -0.0044502323   0.043452159  
     33000   0.0018845578  -0.006331717    0             -0.0047775767   0.00085133452
     33500   0.0018937602  -0.0068199839   0             -0.0052582547   0.0020925093 
     34000   0.0018307621  -0.0074144439   0             -0.0059046674  -0.046764746  
     34500   0.0020826288  -0.0081747611   0             -0.0064572773   0.070508771  
     35000   0.0020397167  -0.0084519328   0             -0.0067698375   0.049658641  
     35500   0.0025896162  -0.0094113287   0             -0.0072757472   0.068946719  
     36000   0.0024513     -0.0098625354   0             -0.0078410192  -0.026392533  
     36500   0.002856808   -0.011151272    0             -0.0087953451  -0.0014710415 
     37000   0.0025766299  -0.01189737     0             -0.0097724976   0.1154988    
     37500   0.0025627918  -0.012771584    0             -0.010658123   -0.02973158   
     38000   0.0022163796  -0.012892034    0             -0.01106425    -0.012580576  
     38500   0.0027263033  -0.013965146    0             -0.011716843   -0.068194466  
     39000   0.0022582116  -0.014225283    0             -0.012363001   -0.066469919  
     39500   0.0027906708  -0.015406828    0             -0.013105442    0.10309446   
     40000   0.0026466238  -0.016397585    0             -0.014214991    0.030546131  
     40500   0.0024724827  -0.016947184    0             -0.014908199    0.060626521  
     41000   0.0038881497  -0.018968489    0             -0.015762044    0.11697295   
     41500   0.0027663424  -0.019607671    0             -0.017326349    0.021748544  
     42000   0.0024633342  -0.020396154    0             -0.018364714    0.086159784  
     42500   0.0032182414  -0.022347622    0             -0.019693631   -0.0099025419 
     43000   0.0025836713  -0.022944349    0             -0.02081367     0.026360075  
     43500   0.0033364099  -0.024761608    0             -0.022010167   -0.006097938  
     44000   0.0038303182  -0.026616985    0             -0.023458232    0.0060215919 
     44500   0.0033803081  -0.027021262    0             -0.02423362     0.066386695  
     45000   0.003736536   -0.028378977    0             -0.025297564   -0.025861487  
     45500   0.0027066443  -0.028459005    0             -0.026226914   -0.046270349  
     46000   0.0025616684  -0.029155366    0             -0.027042833   -0.01064942   
     46500   0.0028967026  -0.030179485    0             -0.027790658   -0.14492951   
     47000   0.0037626347  -0.031803174    0             -0.028700238   -0.047883835  
     47500   0.0031000806  -0.032330132    0             -0.029773586   -0.15333899   
     48000   0.003201404   -0.033329299    0             -0.030689194    0.030479297  
     48500   0.0029930729  -0.033903265    0             -0.031434964   -0.08292247   
     49000   0.0031058892  -0.034497142    0             -0.031935805   -0.053068166  
     49500   0.0040297468  -0.036729485    0             -0.033406269    0.084142262  
     50000   0.0030906972  -0.037479305    0             -0.034930496    0.1118749    
     50500   0.0037831318  -0.039410223    0             -0.036290383   -0.047034007  
     51000   0.0041183074  -0.040806789    0             -0.037410541   -0.10359149   
     51500   0.003814663   -0.042424198    0             -0.039278356   -0.063584008  
     52000   0.0030199789  -0.042887498    0             -0.040397009    0.025585525  
     52500   0.0040476312  -0.044950244    0             -0.04161228     0.060858794  
     53000   0.0028476266  -0.045157038    0             -0.042808683   -0.059476857  
     53500   0.0037913361  -0.046882003    0             -0.043755398   -0.11550105   
     54000   0.0037710243  -0.047860424    0             -0.044750569    0.042182278  
     54500   0.0034206359  -0.048876377    0             -0.046055478    0.051793927  
     55000   0.0030086813  -0.049440563    0             -0.04695939     0.022305239  
     55500   0.00347268    -0.049901129    0             -0.047037311   -0.070478156  
     56000   0.0038715479  -0.050512663    0             -0.047319909    0.012066561  
     56500   0.0041861304  -0.051549814    0             -0.048097633   -0.027247835  
     57000   0.0036273798  -0.05279057     0             -0.049799175    0.017964527  
     57500   0.0039479129  -0.054451122    0             -0.051195393   -0.080133115  
     58000   0.0034549961  -0.055520141    0             -0.052670905   -0.017046109  
     58500   0.0031209431  -0.055094046    0             -0.052520294    0.1153409    
     59000   0.0043661308  -0.05743017     0             -0.053829548    0.037726792  
     59500   0.0058870847  -0.057911145    0             -0.053056237    0.0080193742 
     60000   0.0051443029  -0.059685511    0             -0.055443154    0.10132866   
     60500   0.0041557226  -0.060793518    0             -0.057366414   -0.17137249   
     61000   0.0038520138  -0.061523585    0             -0.058346941    0.07965561   
     61500   0.0042027722  -0.063028514    0             -0.05956261     0.079316582  
     62000   0.003885547   -0.064112128    0             -0.06090783    -0.1255383    
     62500   0.0041267324  -0.065457449    0             -0.062054252   -0.051768602  
     63000   0.0034350948  -0.065928798    0             -0.063095975    0.0057915712 
     63500   0.0059820231  -0.06852833     0             -0.063595128   -0.0091583613 
     64000   0.0039562726  -0.06901117     0             -0.065748547   -0.0063668465 
     64500   0.0036482912  -0.068634657    0             -0.065626017   -0.10042228   
     65000   0.0044435384  -0.070823994    0             -0.067159537    0.026562554  
     65500   0.0043252664  -0.071501025    0             -0.067934103   -0.077320831  
     66000   0.0048632963  -0.073009848    0             -0.068999229    0.065271296  
     66500   0.0048974468  -0.072789552    0             -0.068750769   -0.006262803  
     67000   0.0051663865  -0.073291883    0             -0.069031314    0.10478072   
     67500   0.0040332008  -0.073995889    0             -0.070669825    0.02001687   
     68000   0.010676296   -0.074502272    0             -0.06569784    -0.020329086  
     68500   0.0068241772  -0.075237956    0             -0.069610254    0.057062436  
     69000   0.0048421799  -0.075792778    0             -0.071799572   -0.12535191   
     69500   0.0052443217  -0.07702307     0             -0.07269823     0.090705925  
     70000   0.004888281   -0.078512432    0             -0.074481209   -0.047985863  
     70500   0.0039838916  -0.07798723     0             -0.07470183     0.15269557   
     71000   0.0041552775  -0.079752986    0             -0.076326249   -0.065561559  
     71500   0.0045754385  -0.080921696    0             -0.077148465   -0.025925584  
     72000   0.0049876102  -0.082559204    0             -0.078446066    0.15555999   
     72500   0.0052571043  -0.084785539    0             -0.080450157    0.13365095   
     73000   0.0055638131  -0.087260787    0             -0.082672471   -0.067006089  
     73500   0.0044210618  -0.08712776     0             -0.083481838    0.14174126   
     74000   0.0046282336  -0.089489673    0             -0.085672903    0.028908617  
     74500   0.0043386344  -0.090994829    0             -0.087416883   -0.22396664   
     75000   0.015918311   -0.089722198    0             -0.076594827   -0.074016667  
     75500   0.0087317024  -0.091608175    0             -0.084407393    0.049375709  
     76000   0.0063592454  -0.09345297     0             -0.088208684    0.072654299  
     76500   0.0059364116  -0.09374225     0             -0.088846663   -0.026036907  
     77000   0.0049915254  -0.095198864    0             -0.091082498   -0.079131209  
     77500   0.004757788   -0.095568079    0             -0.091644469    0.16629646   
     78000   0.0057344913  -0.098510429    0             -0.09378136     0.084218313  
     78500   0.0052873572  -0.099694041    0             -0.095333711   -0.14004726   
     79000   0.018029031   -0.09748762     0             -0.082619601    0.035976493  
     79500   0.011107964   -0.10138964     0             -0.092229226    0.11404817   
     80000   0.0074272192  -0.10139774     0             -0.09527273    -0.079511321  
     80500   0.0058631757  -0.1036993      0             -0.098864109   -0.07931208   
     81000   0.0053564497  -0.10462048     0             -0.10020317     0.046093417  
     81500   0.0045982525  -0.1048362      0             -0.10104415     0.021782856  
     82000   0.0044100753  -0.10520242     0             -0.10156556     0.067769503  
     82500   0.026785439   -0.10366613     0             -0.081576951   -0.0082711683 
     83000   0.013057023   -0.10448138     0             -0.093713632   -0.010852258  
     83500   0.0077956562  -0.10496466     0             -0.098535808   -0.053616758  
     84000   0.0060292142  -0.10605781     0             -0.10108569     0.038392596  
     84500   0.0059682147  -0.10774657     0             -0.10282476    -0.029302765  
     85000   0.005594634   -0.10931831     0             -0.10470458     0.01183856   
     85500   0.0053612906  -0.11033212     0             -0.10591082    -0.094640849  
     86000   0.0049742563  -0.11114656     0             -0.10704443    -0.0094603883 
     86500   0.0045015267  -0.11148833     0             -0.10777605     0.079050137  
     87000   0.0042340628  -0.11163042     0             -0.10813871    -0.032411931  
     87500   0.004971414   -0.11234775     0             -0.10824797     0.024605085  
     88000   0.0054366261  -0.11299934     0             -0.10851592    -0.013229914  
     88500   0.0056449466  -0.11524126     0             -0.11058604    -0.066168992  
     89000   0.006910359   -0.11555199     0             -0.10985322    -0.08788986   
     89500   0.0064350507  -0.11759654     0             -0.11228974    -0.012934691  
     90000   0.0056580414  -0.11980459     0             -0.11513857     0.038758071  
     90500   0.0054697905  -0.12056563     0             -0.11605485    -0.018748968  
     91000   0.0054454314  -0.12187423     0             -0.11738354    -0.11333477   
     91500   0.0058345502  -0.1239413      0             -0.11912972     0.0013683487 
     92000   0.0092279963  -0.12259685     0             -0.11498678    -0.043344273  
     92500   0.0064538279  -0.12326512     0             -0.11794283     0.031832063  
     93000   0.0053933565  -0.12381307     0             -0.11936532    -0.10278739   
     93500   0.0061765048  -0.12601248     0             -0.1209189     -0.070105009  
     94000   0.0054008196  -0.12718108     0             -0.12272718     0.042433824  
     94500   0.0055908179  -0.12813253     0             -0.12352195    -0.051860119  
     95000   0.005149473   -0.12841969     0             -0.12417307     0.064747437  
     95500   0.0052440366  -0.12917358     0             -0.12484898    -0.010771449  
     96000   0.0047915233  -0.12965618     0             -0.12570475     0.094589054  
     96500   0.0064711999  -0.12888118     0             -0.12354457    -0.0077129356 
     97000   0.0056735867  -0.12953017     0             -0.12485133     0.11591414   
     97500   0.0053281622  -0.12998981     0             -0.12559583     0.068860226  
     98000   0.0049832165  -0.12996352     0             -0.12585401    -0.026040277  
     98500   0.0055916449  -0.13109745     0             -0.12648618     0.11530248   
     99000   0.005563473   -0.13166984     0             -0.1270818      0.15944826   
     99500   0.0052632798  -0.1324218      0             -0.12808133    -0.042455677  
    100000   0.005698341   -0.13410002     0             -0.12940077     0.024219476  
    100500   0.0053157418  -0.13496771     0             -0.13058397     0.0066104628 
    101000   0.0051032378  -0.13536384     0             -0.13115535     0.18757337   
    101500   0.013235234   -0.13590375     0             -0.12498903     0.069821643  
    102000   0.0087441145  -0.13697059     0             -0.12975957     0.041179301  
    102500   0.0061677752  -0.1369858      0             -0.13189941     0.035815312  
    103000   0.0057414473  -0.13756033     0             -0.13282553    -0.036536392  
    103500   0.0055809478  -0.13846602     0             -0.13386357     0.01343212   
    104000   0.006230261   -0.13923512     0             -0.1340972     -0.024211517  
    104500   0.0061409769  -0.14012206     0             -0.13505777     0.10331743   
    105000   0.0054300002  -0.14099511     0             -0.13651715     0.089684025  
    105500   0.0062927153  -0.14236915     0             -0.13717973     0.15316873   
    106000   0.0060268659  -0.14312637     0             -0.13815619     0.14404231   
    106500   0.0061133205  -0.14417803     0             -0.13913656    -0.013309698  
    107000   0.0064204929  -0.14585007     0             -0.14055527     0.1060502    
    107500   0.0064879079  -0.14702665     0             -0.14167626     0.12060466   
    108000   0.0067351814  -0.1485117      0             -0.14295739    -0.14614812   
    108500   0.0066204229  -0.15047355     0             -0.14501388     0.11746707   
    109000   0.0062432587  -0.15055769     0             -0.14540906    -0.1021999    
    109500   0.0056765261  -0.15101422     0             -0.14633296     0.037387932  
    110000   0.0057119554  -0.15188787     0             -0.14717739     0.0017792717 
    110500   0.014624265   -0.15235419     0             -0.14029398    -0.029478665  
    111000   0.0098147223  -0.15380461     0             -0.1457107      0.022268534  
    111500   0.0075008242  -0.15476394     0             -0.14857822    -0.15734626   
    112000   0.0064423101  -0.15433578     0             -0.14902299     0.10773632   
    112500   0.0067519752  -0.15418956     0             -0.1486214      0.04773605   
    113000   0.0071648401  -0.15685351     0             -0.15094488    -0.080575823  
    113500   0.0064315006  -0.15810868     0             -0.15280481     0.066232851  
    114000   0.0062304549  -0.1591445      0             -0.15400643     0.10881669   
    114500   0.011002626   -0.1582374      0             -0.14916385    -0.09245113   
    115000   0.008058964   -0.15924802     0             -0.15260203    -0.028783478  
    115500   0.0069833562  -0.15928882     0             -0.15352985     0.10676317   
    116000   0.0062761311  -0.16147135     0             -0.1562956     -0.071132657  
    116500   0.011861661   -0.1581153      0             -0.14833333     0.059366241  
    117000   0.017796679   -0.15979615     0             -0.14511974     0.049175766  
    117500   0.013486746   -0.15962269     0             -0.14850056     0.042678156  
    118000   0.0087969943  -0.15957561     0             -0.15232099     0.11740611   
    118500   0.0078411579  -0.15985047     0             -0.15338409     0.10943992   
    119000   0.007612351   -0.16271483     0             -0.15643714     0.035687122  
    119500   0.0069840344  -0.16420055     0             -0.15844102     0.071047911  
    120000   0.0069302246  -0.16518272     0             -0.15946757     0.16204417   
    120500   0.0072979014  -0.16484983     0             -0.15883146     0.085872426  
    121000   0.0072023785  -0.16572991     0             -0.15979032    -0.030490866  
    121500   0.0068575326  -0.16711156     0             -0.16145635     0.1136614    
    122000   0.0066425977  -0.16684375     0             -0.16136579     0.0093349254 
    122500   0.0074987078  -0.16637532     0             -0.16019135     0.0080054097 
    123000   0.0074915684  -0.16888981     0             -0.16271174    -0.03056428   
    123500   0.0070577735  -0.16748834     0             -0.161668      -0.061334644  
    124000   0.0070882446  -0.16821532     0             -0.16236985    -0.1571231    
    124500   0.01181094    -0.16976825     0             -0.16002811     0.21283066   
    125000   0.0082798728  -0.16836386     0             -0.16153568    -0.081381904  
    125500   0.0070454314  -0.17025743     0             -0.16444727    -0.077471008  
    126000   0.0089247386  -0.17030704     0             -0.16294706    -0.27079954   
    126500   0.0098467571  -0.1738743      0             -0.16575396     0.12269936   
    127000   0.014748878   -0.17524684     0             -0.16308387     0.013127032  
    127500   0.0099097959  -0.17563375     0             -0.16746143     0.064574932  
    128000   0.011843847   -0.17532168     0             -0.16555441     0.16270871   
    128500   0.015463491   -0.17328115     0             -0.16052886    -0.056710867  
    129000   0.022397049   -0.17046452     0             -0.15199433    -0.094445989  
    129500   0.016463463   -0.17349003     0             -0.15991309     0.045329427  
    130000   0.010936248   -0.1769711      0             -0.16795229     0.095215875  
    130500   0.010451635   -0.17394307     0             -0.16532391    -0.25696636   
    131000   0.0088610559  -0.17519212     0             -0.16788466    -0.0039758222 
    131500   0.020665652   -0.17618394     0             -0.15914158     0.04376831   
    132000   0.016184257   -0.17556932     0             -0.16222263    -0.2065963    
    132500   0.010964725   -0.17645191     0             -0.16740962     0.086757911  
    133000   0.017576153   -0.1755602      0             -0.16106565     0.03629952   
    133500   0.011210058   -0.17628268     0             -0.16703807    -0.029036811  
    134000   0.023640744   -0.17567685     0             -0.15618101    -0.031499812  
    134500   0.021192573   -0.17385415     0             -0.15637725    -0.036424381  
    135000   0.013492046   -0.17396588     0             -0.16283938     0.00043864049
    135500   0.017374119   -0.17480913     0             -0.1604812      0.13456433   
    136000   0.025901527   -0.17301491     0             -0.15165467     0.0022469118 
    136500   0.013509639   -0.17395732     0             -0.16281631    -0.1186967    
    137000   0.0097466741  -0.17555159     0             -0.16751379    -0.025126132  
    137500   0.0086687202  -0.17441624     0             -0.1672674      0.052910227  
    138000   0.012864847   -0.17368541     0             -0.16307614     0.17028051   
    138500   0.0085837655  -0.17519857     0             -0.16811979    -0.095348375  
    139000   0.018454399   -0.17439567     0             -0.15917686     0.084421697  
    139500   0.011463046   -0.17530821     0             -0.16585497     0.0072910785 
    140000   0.014285242   -0.17666822     0             -0.16488759     0.11598052   
    140500   0.010158147   -0.17626531     0             -0.16788818     0.16583117   
    141000   0.0077091362  -0.17717127     0             -0.17081377     0.04688776   
    141500   0.0081767497  -0.17848312     0             -0.17173999    -0.067506775  
    142000   0.0079225035  -0.17874063     0             -0.17220717    -0.10288246   
    142500   0.0082991121  -0.1814061      0             -0.17456207    -0.044885426  
    143000   0.013006466   -0.17920084     0             -0.16847478    -0.026590862  
    143500   0.010288321   -0.17993631     0             -0.17145183    -0.08950566   
    144000   0.01650722    -0.18053449     0             -0.16692147    -0.060119004  
    144500   0.01623798    -0.18030428     0             -0.16691328     0.0019698034 
    145000   0.012393707   -0.1789315      0             -0.16871077    -0.098446261  
    145500   0.011819096   -0.18006737     0             -0.17032051     0.18538344   
    146000   0.0089098916  -0.18006809     0             -0.17272036    -0.063862672  
    146500   0.007797115   -0.1802977      0             -0.17386765    -0.090782503  
    147000   0.0075210449  -0.18017015     0             -0.17396776     0.094165098  
    147500   0.0071873845  -0.18068799     0             -0.17476077     0.29932368   
    148000   0.0073920612  -0.18163173     0             -0.17553571    -0.15961277   
    148500   0.0088133989  -0.17982407     0             -0.17255592     0.074069252  
    149000   0.0087079605  -0.18036239     0             -0.17318118     0.10735062   
    149500   0.0083354127  -0.18217937     0             -0.1753054      0.1281653    
    150000   0.01140762    -0.18267591     0             -0.17326838     0.11786645   
    150500   0.0093983061  -0.18272977     0             -0.17497926    -0.14224324   
    151000   0.011493042   -0.18355429     0             -0.17407631     0.099939797  
    151500   0.015590655   -0.18180178     0             -0.16894461     0.11368434   
    152000   0.02631375    -0.17446117     0             -0.15276098    -0.019285651  
    152500   0.019970418   -0.17690407     0             -0.16043504    -0.13402103   
    153000   0.011632442   -0.17737655     0             -0.16778361     0.21233155   
    153500   0.010185263   -0.17827923     0             -0.16987974    -0.029738794  
    154000   0.0094366559  -0.18003396     0             -0.17225182    -0.019638526  
    154500   0.019263669   -0.17815665     0             -0.16227046    -0.14593043   
    155000   0.011833199   -0.18010856     0             -0.17035006    -0.023385877  
    155500   0.010270369   -0.17986616     0             -0.17139648     0.15871575   
    156000   0.020149051   -0.17960321     0             -0.16298687    -0.024609494  
    156500   0.01287856    -0.18059657     0             -0.169976      -0.0055060912 
    157000   0.010626287   -0.18224313     0             -0.17347993     0.14365398   
    157500   0.0092775193  -0.18227991     0             -0.17462901    -0.039648476  
    158000   0.008689918   -0.18254767     0             -0.17538134     0.10059757   
    158500   0.0085796701  -0.18306934     0             -0.17599394     0.060690573  
    159000   0.008124994   -0.18386232     0             -0.17716187    -0.082458442  
    159500   0.007795878   -0.18543626     0             -0.17900722    -0.10010485   
    160000   0.007566674   -0.18699011     0             -0.18075009    -0.071354316  
    160500   0.024051951   -0.18392327     0             -0.16408832    -0.024412045  
    161000   0.013705445   -0.18389469     0             -0.17259221    -0.034734611  
    161500   0.012052692   -0.18488902     0             -0.17494952     0.0096014271 
    162000   0.020695514   -0.18288591     0             -0.16581892    -0.25140439   
    162500   0.025328143   -0.18229291     0             -0.16140553     0.051983689  
    163000   0.032904378   -0.18075405     0             -0.15361876    -0.06804422   
    163500   0.020349378   -0.17875923     0             -0.16197769     0.18150528   
    164000   0.013312915   -0.1821002      0             -0.17112142     0.074085763  
    164500   0.010299363   -0.18184751     0             -0.17335392     0.18503842   
    165000   0.024029226   -0.18176214     0             -0.16194593    -0.059981038  
    165500   0.01972407    -0.18066867     0             -0.1644028      0.06710506   
    166000   0.015420721   -0.18013421     0             -0.16741719     0.03849638   
    166500   0.014419831   -0.18162068     0             -0.16972906     0.028402763  
    167000   0.012874644   -0.18133566     0             -0.17071831    -0.099740304  
    167500   0.017305921   -0.1802074      0             -0.16593571    -0.083905511  
    168000   0.012655872   -0.18317548     0             -0.17273855     0.12755192   
    168500   0.010247987   -0.18314151     0             -0.17469029     0.11473804   
    169000   0.024377702   -0.18392434     0             -0.16382076     0.10173227   
    169500   0.018133667   -0.18379532     0             -0.16884101    -0.050784938  
    170000   0.020494503   -0.18351094     0             -0.16660972     0.02332642   
    170500   0.013612872   -0.18435114     0             -0.173125      -0.071978058  
    171000   0.010417121   -0.18534004     0             -0.17674935     0.10774472   
    171500   0.0092307315  -0.18526182     0             -0.1776495      0.13104822   
    172000   0.010074938   -0.18701354     0             -0.17870503    -0.019976511  
    172500   0.0094961003  -0.18718232     0             -0.17935117    -0.12465076   
    173000   0.016891301   -0.1871851      0             -0.17325533    -0.11906592   
    173500   0.013121059   -0.18832974     0             -0.17750918     0.16689999   
    174000   0.018943753   -0.1883381      0             -0.17271573     0.14319683   
    174500   0.014665211   -0.18723188     0             -0.17513791    -0.068309733  
    175000   0.011450812   -0.18792459     0             -0.17848144    -0.10436485   
    175500   0.010319921   -0.18877006     0             -0.18025952     0.080075045  
    176000   0.029425839   -0.18723996     0             -0.16297332     0.10651398   
    176500   0.024763076   -0.18366364     0             -0.16324225     0.10042574   
    177000   0.014672287   -0.18634125     0             -0.17424144    -0.13607032   
    177500   0.010756906   -0.18700392     0             -0.17813301    -0.21420955   
    178000   0.015047787   -0.18532197     0             -0.17291249     0.10968484   
    178500   0.013354264   -0.18698661     0             -0.17597373     0.19461765   
    179000   0.012655812   -0.19009524     0             -0.17965836     0.064110907  
    179500   0.012335607   -0.18746459     0             -0.17729177     0.20088666   
    180000   0.025389686   -0.18413276     0             -0.16319462     0.16255666   
    180500   0.019665763   -0.18664519     0             -0.1704274     -0.026551533  
    181000   0.015502747   -0.18874718     0             -0.17596251    -0.16678182   
    181500   0.012838594   -0.18848064     0             -0.17789303    -0.003738504  
    182000   0.0098537796  -0.19043154     0             -0.18230541     0.064678108  
    182500   0.009379545   -0.18935631     0             -0.18162127     0.025377332  
    183000   0.01047697    -0.18892854     0             -0.18028849     0.082284439  
    183500   0.011564808   -0.18930143     0             -0.17976427     0.034832911  
    184000   0.017509001   -0.18989048     0             -0.17545132    -0.16267955   
    184500   0.012604117   -0.18933606     0             -0.17894181     0.050407781  
    185000   0.027115814   -0.18870151     0             -0.16633988    -0.048931978  
    185500   0.01566633    -0.18780352     0             -0.17488395     0.067038552  
    186000   0.012254054   -0.18939869     0             -0.17929312    -0.058280685  
    186500   0.022743261   -0.1905542      0             -0.17179849     0.072328528  
    187000   0.014398882   -0.19178605     0             -0.17991171    -0.06490018   
    187500   0.012998778   -0.19063859     0             -0.17991887    -0.11542452   
    188000   0.017820093   -0.19002712     0             -0.1753314      0.057015594  
    188500   0.014766452   -0.19208945     0             -0.17991198     0.14715803   
    189000   0.013583861   -0.19345872     0             -0.18225651    -0.017259689  
    189500   0.011058958   -0.19271636     0             -0.18359635    -0.0014332242 
    190000   0.015127491   -0.19174888     0             -0.17927367     0.12922238   
    190500   0.011258232   -0.19238181     0             -0.18309747    -0.16603527   
    191000   0.010639278   -0.19273474     0             -0.18396084     0.039372522  
    191500   0.010394696   -0.19404787     0             -0.18547566    -0.20402414   
    192000   0.0098619945  -0.19383849     0             -0.18570559    -0.12743247   
    192500   0.010483018   -0.19417792     0             -0.18553287    -0.018255767  
    193000   0.01136204    -0.19395756     0             -0.18458761    -0.056892472  
    193500   0.014350795   -0.19458204     0             -0.18274736     0.0087960647 
    194000   0.013204608   -0.19540296     0             -0.1845135     -0.15706092   
    194500   0.010983808   -0.19569088     0             -0.18663285    -0.11965123   
    195000   0.010284011   -0.1966455      0             -0.18816457     0.17194396   
    195500   0.012158139   -0.19615012     0             -0.18612365     0.1439007    
    196000   0.015802563   -0.19593124     0             -0.18289932     0.14425976   
    196500   0.015676999   -0.19694376     0             -0.18401539     0.012144317  
    197000   0.011490173   -0.19706099     0             -0.18758538    -0.098241247  
    197500   0.01175276    -0.19783744     0             -0.18814528    -0.10245961   
    198000   0.012589662   -0.20047081     0             -0.19008848     0.045295034  
    198500   0.01118938    -0.20296284     0             -0.19373528    -0.10731131   
    199000   0.026024023   -0.19815865     0             -0.17669739     0.26170201   
    199500   0.017792218   -0.20057377     0             -0.18590104    -0.12291565   
    200000   0.013212166   -0.20134417     0             -0.19044847    -0.11893327   
    200500   0.011445433   -0.20299741     0             -0.19355869     0.057475425  
    201000   0.012268314   -0.20041152     0             -0.1902942      0.039074989  
    201500   0.018785413   -0.20031719     0             -0.1848254     -0.015023426  
    202000   0.017583316   -0.20006961     0             -0.18556916     0.064683926  
    202500   0.014634034   -0.19869082     0             -0.18662256    -0.04765458   
    203000   0.02011751    -0.19811882     0             -0.18152849     0.025606156  
    203500   0.023279627   -0.198771       0             -0.17957297     0.54372136   
    204000   0.020790407   -0.19731867     0             -0.18017342    -0.0094983853 
    204500   0.015358003   -0.1963347      0             -0.1836694     -0.12488176   
    205000   0.015764128   -0.19585007     0             -0.18284985     0.017806449  
    205500   0.013613008   -0.19917467     0             -0.18794841    -0.12391246   
    206000   0.014873877   -0.20024373     0             -0.18797767     0.12048448   
    206500   0.013562412   -0.20054843     0             -0.1893639     -0.044188135  
    207000   0.011577807   -0.20117128     0             -0.19162339     0.13329803   
    207500   0.011252403   -0.20179654     0             -0.19251701     0.056585906  
    208000   0.012341528   -0.20253088     0             -0.19235318     0.026114134  
    208500   0.012075334   -0.20399402     0             -0.19403584     0.088706002  
    209000   0.011088353   -0.20247457     0             -0.19333033    -0.006527287  
    209500   0.016480954   -0.2023876      0             -0.18879624    -0.0078467905 
    210000   0.014591665   -0.20270212     0             -0.19066879    -0.051279687  
    210500   0.028177275   -0.20347056     0             -0.18023357     0.066886138  
    211000   0.017970016   -0.20196647     0             -0.18714711     0.1533473    
    211500   0.023301067   -0.20306392     0             -0.18384821    -0.086839907  
    212000   0.015583383   -0.20491444     0             -0.19206328     0.050548428  
    212500   0.012327728   -0.20562516     0             -0.19545884     0.11046359   
    213000   0.011871417   -0.20724169     0             -0.19745167     0.027615361  
    213500   0.018521568   -0.20621603     0             -0.19094183     0.14694176   
    214000   0.014035151   -0.2074657      0             -0.19589132     0.053681682  
    214500   0.017838335   -0.20603333     0             -0.19132257    -0.019277759  
    215000   0.014296111   -0.20662344     0             -0.19483385    -0.29752499   
    215500   0.015617999   -0.20531649     0             -0.19243678    -0.0034940432 
    216000   0.022492845   -0.20533713     0             -0.18678794     0.073183594  
    216500   0.028053348   -0.20302099     0             -0.17988621    -0.098196498  
    217000   0.020267065   -0.20279992     0             -0.18608626    -0.10396286   
    217500   0.014698158   -0.2038467      0             -0.19172556    -0.041655023  
    218000   0.01651074    -0.2039082      0             -0.19029227     0.22184699   
    218500   0.023889042   -0.20271184     0             -0.18301124    -0.16450944   
    219000   0.01626675    -0.20369308     0             -0.19027836     0.052337656  
    219500   0.029309304   -0.20175157     0             -0.17758104     0.032726555  
    220000   0.017710555   -0.20147867     0             -0.18687329    -0.090108492  
    220500   0.014531735   -0.20315663     0             -0.19117273     0.12590587   
    221000   0.013106855   -0.2019381      0             -0.19112926     0.12818119   
    221500   0.011761989   -0.20279522     0             -0.19309545     0.010746687  
    222000   0.029634881   -0.20195325     0             -0.17751422    -0.032383071  
    222500   0.018620477   -0.20025164     0             -0.18489587    -0.15521433   
    223000   0.013779615   -0.20093385     0             -0.1895702     -0.098972879  
    223500   0.012202109   -0.20157165     0             -0.19150893    -0.082159344  
    224000   0.018318849   -0.20015685     0             -0.18504982     0.15072344   
    224500   0.018729764   -0.20008119     0             -0.18463529     0.11441873   
    225000   0.014439802   -0.20027867     0             -0.18837059    -0.11133083   
    225500   0.013287545   -0.20116974     0             -0.19021188     0.13386878   
    226000   0.012725414   -0.20242023     0             -0.19192595     0.20646734   
    226500   0.011912482   -0.20264456     0             -0.19282068    -0.21850809   
    227000   0.012365074   -0.20233835     0             -0.19214123     0.091447987  
    227500   0.016759868   -0.20233355     0             -0.18851217     0.097176988  
    228000   0.025477379   -0.20180037     0             -0.18078991    -0.22264662   
    228500   0.025346205   -0.20303073     0             -0.18212845    -0.090361915  
    229000   0.02254105    -0.20290131     0             -0.18431236     0.10777925   
    229500   0.015495663   -0.20288802     0             -0.19010919    -0.044538249  
    230000   0.024120675   -0.20247158     0             -0.18257995    -0.045703064  
    230500   0.018727682   -0.20189745     0             -0.18645327    -0.26740927   
    231000   0.026210705   -0.2009446      0             -0.17932939    -0.1240052    
    231500   0.022015693   -0.20016641     0             -0.1820107      0.13994858   
    232000   0.023439565   -0.19995911     0             -0.18062918     0.023946515  
    232500   0.025854737   -0.20149684     0             -0.18017519    -0.032685224  
    233000   0.016780155   -0.20026955     0             -0.18643145    -0.24223368   
    233500   0.018319062   -0.20065968     0             -0.18555248    -0.014357494  
    234000   0.020582274   -0.19855041     0             -0.1815768      0.076421511  
    234500   0.02774788    -0.19920664     0             -0.17632376    -0.026993293  
    235000   0.032731668   -0.19959261     0             -0.17259976     0.19561932   
    235500   0.02043685    -0.20271822     0             -0.18586454    -0.155916     
    236000   0.01541644    -0.203319       0             -0.19060551    -0.015163264  
    236500   0.021616334   -0.20367728     0             -0.18585091    -0.16289841   
    237000   0.016648518   -0.20342169     0             -0.18969214    -0.091309416  
    237500   0.024083427   -0.20400856     0             -0.18414766     0.14981295   
    238000   0.023458314   -0.20536024     0             -0.18601484    -0.16634431   
    238500   0.031417715   -0.20207278     0             -0.1761635      0.19898084   
    239000   0.033032512   -0.20402375     0             -0.17678279    -0.058861943  
    239500   0.0263224     -0.20397205     0             -0.18226473    -0.039616645  
    240000   0.01764744    -0.2052577      0             -0.19070437     0.074849921  
    240500   0.025510501   -0.2046534      0             -0.18361563     0.14863579   
    241000   0.021176224   -0.20356649     0             -0.18610307     0.24080387   
    241500   0.040795579   -0.20056483     0             -0.1669219      0.062744945  
    242000   0.025558249   -0.20228169     0             -0.18120455     0.1531052    
    242500   0.017305121   -0.203562       0             -0.18929097    -0.028946425  
    243000   0.015657663   -0.20387967     0             -0.19096725     0.064601216  
    243500   0.026065604   -0.20254075     0             -0.1810452     -0.21429081   
    244000   0.018823659   -0.2054485      0             -0.18992517     0.2164401    
    244500   0.014774205   -0.20453272     0             -0.19234886    -0.007053226  
    245000   0.013571597   -0.20597009     0             -0.19477799     0.3303556    
    245500   0.017775888   -0.20680108     0             -0.19214182     0.12104685   
    246000   0.013816522   -0.20745532     0             -0.19606124    -0.1116838    
    246500   0.017489095   -0.20573642     0             -0.19131367     0.099734428  
    247000   0.015354268   -0.20707415     0             -0.19441192    -0.19484427   
    247500   0.013820871   -0.2056425      0             -0.19424483     0.025473421  
    248000   0.013283667   -0.20638577     0             -0.19543111     0.02022123   
    248500   0.013106311   -0.20561005     0             -0.19480165     0.048448259  
    249000   0.013213191   -0.20583906     0             -0.19494252    -0.10907796   
    249500   0.019592703   -0.20624509     0             -0.19008756     0.0161601    
    250000   0.018661019   -0.20661614     0             -0.19122694    -0.052216483  
    250500   0.026399599   -0.20430468     0             -0.18253369    -0.11286654   
    251000   0.017443546   -0.20619559     0             -0.1918104      0.10594694   
    251500   0.021360865   -0.2038979      0             -0.18628221     0.058254394  
    252000   0.02035232    -0.20225728     0             -0.18547331     0.12438163   
    252500   0.015989981   -0.2039291      0             -0.19074262     0.238244     
    253000   0.015205681   -0.20542491     0             -0.19288523    -0.05092504   
    253500   0.013543216   -0.20557642     0             -0.19440773    -0.0026174773 
    254000   0.020930482   -0.204161       0             -0.18690024     0.033030639  
    254500   0.016472051   -0.20445871     0             -0.19087469    -0.07174705   
    255000   0.015243592   -0.20555668     0             -0.19298573     0.13187232   
    255500   0.014596798   -0.20647618     0             -0.19443862     0.049264352  
    256000   0.020812462   -0.20642347     0             -0.18926004     0.070881676  
    256500   0.014393728   -0.20632161     0             -0.19445152    -0.24291979   
    257000   0.014556607   -0.20882129     0             -0.19681688     0.083051396  
    257500   0.013277591   -0.2089159      0             -0.19796626     0.25448441   
    258000   0.023397177   -0.20813576     0             -0.18884079     0.020580543  
    258500   0.017766673   -0.20918387     0             -0.19453221    -0.047494274  
    259000   0.01447263    -0.20985042     0             -0.19791526    -0.097016739  
    259500   0.014071789   -0.21087399     0             -0.19926939    -0.052767607  
    260000   0.012816727   -0.21056668     0             -0.19999709     0.03731018   
    260500   0.015519926   -0.21163422     0             -0.19883538    -0.029731429  
    261000   0.014486371   -0.2115337      0             -0.19958721    -0.068335073  
    261500   0.0143694     -0.21241133     0             -0.2005613     -0.21443006   
    262000   0.030699477   -0.20852766     0             -0.18321069     0.077041762  
    262500   0.019799627   -0.21088766     0             -0.19455948     0.16741668   
    263000   0.015257442   -0.21122357     0             -0.1986412     -0.11863576   
    263500   0.01416456    -0.21363164     0             -0.20195054    -0.02113106   
    264000   0.024989991   -0.20995258     0             -0.18934406     0.10620523   
    264500   0.017828281   -0.21112439     0             -0.19642193    -0.14701361   
    265000   0.016660161   -0.21265441     0             -0.19891525    -0.11057557   
    265500   0.017582561   -0.2104651      0             -0.19596527     0.037646665  
    266000   0.015172684   -0.2114626      0             -0.19895013     0.33577806   
    266500   0.020647909   -0.21108733     0             -0.19405959     0.0094044199 
    267000   0.018450101   -0.21100309     0             -0.19578783    -0.058310984  
    267500   0.015946318   -0.2109801      0             -0.19782963     0.014619698  
    268000   0.016218088   -0.21279273     0             -0.19941815    -0.16702101   
    268500   0.019609571   -0.21178517     0             -0.19561372    -0.13698477   
    269000   0.016157373   -0.21333743     0             -0.20001291     0.019980475  
    269500   0.018789968   -0.21221269     0             -0.19671714     0.052569774  
    270000   0.017669601   -0.21334572     0             -0.19877411     0.11538851   
    270500   0.015033573   -0.21349683     0             -0.20109908     0.24299373   
    271000   0.013566395   -0.21361432     0             -0.2024265     -0.13559037   
    271500   0.013949272   -0.21488867     0             -0.20338511    -0.033912421  
    272000   0.026309931   -0.21367742     0             -0.19198038    -0.01298483   
    272500   0.017733872   -0.21327113     0             -0.19864652     0.035348751  
    273000   0.022905134   -0.21302935     0             -0.19414015     0.051968851  
    273500   0.017078991   -0.21198316     0             -0.19789862    -0.065018195  
    274000   0.028497866   -0.21193718     0             -0.18843581     0.093685594  
    274500   0.035021893   -0.21256127     0             -0.18367972     0.10366661   
    275000   0.021982075   -0.21407046     0             -0.19594248     0.018544359  
    275500   0.026075304   -0.21280946     0             -0.19130591     0.13733514   
    276000   0.018334617   -0.21437246     0             -0.19925243    -0.22286262   
    276500   0.016733085   -0.21475275     0             -0.20095346    -0.0081034974 
    277000   0.018757766   -0.21508879     0             -0.1996198     -0.16478042   
    277500   0.015953913   -0.21585247     0             -0.20269574    -0.076920658  
    278000   0.021630328   -0.21591337     0             -0.19807547     0.17014586   
    278500   0.019531175   -0.21474703     0             -0.19864024     0.14203329   
    279000   0.020678528   -0.21561075     0             -0.19855777    -0.015874695  
    279500   0.0256286     -0.21565056     0             -0.19451539    -0.043869194  
    280000   0.023222533   -0.21636713     0             -0.19721618    -0.014297711  
    280500   0.018571208   -0.21732651     0             -0.20201137     0.32104227   
    281000   0.020183648   -0.21998311     0             -0.20333824    -0.31000915   
    281500   0.016118794   -0.21929128     0             -0.20599858    -0.15515512   
    282000   0.018704715   -0.21741337     0             -0.20198813    -0.070438227  
    282500   0.024037242   -0.21770356     0             -0.19788074    -0.22226877   
    283000   0.019388625   -0.21938681     0             -0.20339757     0.045061516  
    283500   0.015553858   -0.22107647     0             -0.20824965    -0.065978957  
    284000   0.028318538   -0.21818328     0             -0.1948298      0.18013159   
    284500   0.020436103   -0.2194366      0             -0.20258353    -0.20651119   
    285000   0.028574876   -0.2181042      0             -0.19453933     0.33528203   
    285500   0.044534306   -0.2168773      0             -0.18015115     0.17626353   
    286000   0.025199908   -0.21757832     0             -0.19679668    -0.11109046   
    286500   0.019569814   -0.22027813     0             -0.20413947     0.013972529  
    287000   0.018953903   -0.21854365     0             -0.20291292     0.0028871962 
    287500   0.016427942   -0.21935736     0             -0.20580972     0.044987126  
    288000   0.016420288   -0.21971179     0             -0.20617045    -0.15994505   
    288500   0.019926651   -0.2200932      0             -0.20366027    -0.0043443684 
    289000   0.016272282   -0.21948245     0             -0.20606317    -0.096717887  
    289500   0.024452153   -0.21659824     0             -0.19643325     0.015816813  
    290000   0.018272757   -0.21780732     0             -0.20273831    -0.032575916  
    290500   0.015888428   -0.2174975      0             -0.20439477    -0.13699918   
    291000   0.026137572   -0.21743164     0             -0.19587674     0.0066116557 
    291500   0.023222177   -0.21591775     0             -0.1967671      0.1835142    
    292000   0.023726716   -0.21436769     0             -0.19480095    -0.011358842  
    292500   0.021750147   -0.2158518      0             -0.19791509    -0.17067815   
    293000   0.016776865   -0.21658046     0             -0.20274506    -0.14520514   
    293500   0.015683105   -0.21698219     0             -0.20404879     0.14543584   
    294000   0.013806223   -0.21741774     0             -0.20603214     0.13164037   
    294500   0.023244768   -0.21600214     0             -0.19683286     0.075739503  
    295000   0.022146081   -0.21702421     0             -0.19876098     0.027938767  
    295500   0.018490366   -0.21748199     0             -0.20223352     0.13854937   
    296000   0.035674462   -0.21381173     0             -0.18439204     0.062717138  
    296500   0.021980285   -0.21521486     0             -0.19708836    -0.062526889  
    297000   0.016748417   -0.21509337     0             -0.20128143     0.041782411  
    297500   0.015578055   -0.21727484     0             -0.20442807    -0.40638951   
    298000   0.026656639   -0.21682489     0             -0.19484193     0.0048815685 
    298500   0.019853545   -0.21588056     0             -0.19950791    -0.03044986   
    299000   0.029942534   -0.21434676     0             -0.18965402    -0.027387455  
    299500   0.032770148   -0.21284535     0             -0.18582076    -0.15005211   
    300000   0.035827581   -0.21525072     0             -0.18570475     0.36841852   
    300500   0.023209989   -0.2150226      0             -0.195882       0.37535812   
    301000   0.03141077    -0.21476333     0             -0.18885978     0.029453531  
    301500   0.022505403   -0.21461413     0             -0.19605458    -0.06435596   
    302000   0.020855733   -0.21676063     0             -0.19956151    -0.081126726  
    302500   0.017780328   -0.21795571     0             -0.20329279     0.28828488   
    303000   0.027050741   -0.21831657     0             -0.19600861    -0.32606985   
    303500   0.018937187   -0.21793077     0             -0.20231382    -0.11950193   
    304000   0.017981209   -0.21885515     0             -0.20402657    -0.19942747   
    304500   0.024035779   -0.21747228     0             -0.19765067    -0.042116683  
    305000   0.019066582   -0.21991122     0             -0.20418756     0.055565807  
    305500   0.018002287   -0.22079466     0             -0.2059487      0.026574318  
    306000   0.015977552   -0.22084228     0             -0.20766605     0.15100757   
    306500   0.030603869   -0.22090184     0             -0.19566371    -0.057573833  
    307000   0.02874417    -0.2203269      0             -0.19662241     0.13868397   
    307500   0.026952123   -0.21991526     0             -0.19768863     0.20172767   
    308000   0.020454639   -0.22025327     0             -0.20338492    -0.11807971   
    308500   0.020467618   -0.22202678     0             -0.20514773    -0.14560715   
    309000   0.01655148    -0.21974191     0             -0.20609238     0.26682977   
    309500   0.0234284     -0.21911607     0             -0.19979535     0.13680316   
    310000   0.03592893    -0.21647305     0             -0.1868435      0.096621185  
    310500   0.027325667   -0.21645699     0             -0.1939223      0.19862898   
    311000   0.031565925   -0.2174432      0             -0.1914117      0.040722884  
    311500   0.023861876   -0.21684938     0             -0.19717119     0.031569987  
    312000   0.04212388    -0.21237164     0             -0.1776333     -0.0038200163 
    312500   0.025811726   -0.21437204     0             -0.19308585    -0.13979401   
    313000   0.019689648   -0.21471886     0             -0.19848138     0.26806387   
    313500   0.02084352    -0.21337084     0             -0.19618179     0.18302932   
    314000   0.017282606   -0.21279498     0             -0.19854252    -0.030955602  
    314500   0.019242588   -0.21411788     0             -0.19824908     0.020461102  
    315000   0.016560996   -0.21495546     0             -0.20129808     0.18256733   
    315500   0.018735499   -0.2144833      0             -0.19903267    -0.15565984   
    316000   0.016742364   -0.21537137     0             -0.20156442     0.11546596   
    316500   0.025532064   -0.21537851     0             -0.19432295    -0.11342048   
    317000   0.020557374   -0.21525022     0             -0.19829715     0.059487833  
    317500   0.023044749   -0.21478557     0             -0.19578123    -0.19350927   
    318000   0.057096796   -0.21179337     0             -0.1647073      0.072071301  
    318500   0.030026034   -0.2089218      0             -0.1841602      0.13864176   
    319000   0.020971188   -0.21110664     0             -0.19381231     0.12229572   
    319500   0.032705815   -0.21060399     0             -0.18363245    -0.13609201   
    320000   0.038878752   -0.20997536     0             -0.17791318     0.17714552   
    320500   0.025312763   -0.20819308     0             -0.18731838     0.14561917   
    321000   0.023601214   -0.20944354     0             -0.1899803      0.053707213  
    321500   0.018653587   -0.2083693      0             -0.19298623     0.096330906  
    322000   0.018595118   -0.21006303     0             -0.19472818    -0.049633331  
    322500   0.021380961   -0.20921691     0             -0.19158465     0.011791056  
    323000   0.018048995   -0.21078142     0             -0.19589694     0.063926987  
    323500   0.021504623   -0.20929469     0             -0.19156045    -0.18019456   
    324000   0.020475978   -0.20955765     0             -0.19267171    -0.064976876  
    324500   0.018955887   -0.21155555     0             -0.19592318     0.3472869    
    325000   0.020167362   -0.20995033     0             -0.19331889     0.25304664   
    325500   0.042880086   -0.20771105     0             -0.17234908    -0.20407551   
    326000   0.02705164    -0.20961748     0             -0.18730878     0.13386838   
    326500   0.029347669   -0.20795685     0             -0.18375468    -0.098248593  
    327000   0.037138432   -0.20786317     0             -0.17723618     0.01630625   
    327500   0.024735304   -0.20943216     0             -0.18903368     0.075156823  
    328000   0.024731573   -0.20706807     0             -0.18667265     0.17096542   
    328500   0.019202109   -0.20735446     0             -0.19151904    -0.045354838  
    329000   0.01789099    -0.20707682     0             -0.19232264     0.018699488  
    329500   0.017126263   -0.20763393     0             -0.1935104     -0.024531884  
    330000   0.017243193   -0.20860436     0             -0.1943844      0.04464868   
    330500   0.027791422   -0.20662515     0             -0.18370637    -0.046865085  
    331000   0.020054703   -0.20837674     0             -0.19183821     0.39541191   
    331500   0.021279084   -0.20661495     0             -0.1890667      0.10950174   
    332000   0.028887381   -0.20845674     0             -0.18463415     0.00084439495
    332500   0.029931432   -0.20779132     0             -0.18310774     0.17869625   
    333000   0.021923661   -0.20823817     0             -0.19015836     0.19703007   
    333500   0.028927081   -0.20967844     0             -0.18582311     0.0372804    
    334000   0.034817559   -0.20728815     0             -0.17857511     0.019753448  
    334500   0.024334953   -0.20877563     0             -0.1887073     -0.1740396    
    335000   0.019152044   -0.20910237     0             -0.19330824    -0.055612981  
    335500   0.017298776   -0.2093734      0             -0.1951076     -0.11515256   
    336000   0.017717997   -0.21110402     0             -0.1964925      0.010337514  
    336500   0.02819709    -0.20863002     0             -0.18537669     0.19573548   
    337000   0.020499011   -0.20992663     0             -0.19302169     0.1818583    
    337500   0.019106121   -0.20889872     0             -0.19314245     0.10086777   
    338000   0.023123351   -0.21084535     0             -0.1917762      0.20001482   
    338500   0.033521955   -0.20742914     0             -0.17978455     0.065958483  
    339000   0.029374256   -0.20629407     0             -0.18206997     0.023922526  
    339500   0.022051157   -0.20716276     0             -0.18897781    -0.0047985766 
    340000   0.018185334   -0.20674787     0             -0.19175095    -0.20058382   
    340500   0.019974835   -0.2064894      0             -0.19001673     0.32675075   
    341000   0.025106259   -0.2062636      0             -0.18555919    -0.063658962  
    341500   0.020241468   -0.20795834     0             -0.19126578    -0.11257175   
    342000   0.021930633   -0.2050185      0             -0.18693294     0.046517703  
    342500   0.023279142   -0.20559001     0             -0.18639238     0.010453485  
    343000   0.020445594   -0.20578145     0             -0.18892056    -0.0055522657 
    343500   0.019465341   -0.20445463     0             -0.18840212     0.060549369  
    344000   0.029476123   -0.20377247     0             -0.17946437     0.1576812    
    344500   0.037124025   -0.20046965     0             -0.16985454     0.39399018   
    345000   0.029015609   -0.20182651     0             -0.17789818    -0.047900835  
    345500   0.029651443   -0.20093881     0             -0.17648613    -0.19229945   
    346000   0.027464996   -0.20336446     0             -0.18071487    -0.14883613   
    346500   0.023164794   -0.20136571     0             -0.18226237     0.1064901    
    347000   0.027795524   -0.19934108     0             -0.17641892    -0.056788004  
    347500   0.022242606   -0.20197904     0             -0.18363621    -0.051338224  
    348000   0.018573293   -0.20108582     0             -0.18576896    -0.052807399  
    348500   0.018423259   -0.2019692      0             -0.18677607     0.030163303  
    349000   0.022912724   -0.20066397     0             -0.18176851     0.12037537   
    349500   0.021131486   -0.20171942     0             -0.1842929      0.11162569   
    350000   0.018849332   -0.20139383     0             -0.18584933    -0.062375263  
    350500   0.018823002   -0.20238565     0             -0.18686287     0.069007793  
    351000   0.01946039    -0.20381418     0             -0.18776576     0.1657286    
    351500   0.031198879   -0.20341899     0             -0.17769017     0.24590877   
    352000   0.023595967   -0.20388529     0             -0.18442638     0.099818765  
    352500   0.022280084   -0.20504719     0             -0.18667345     0.25263706   
    353000   0.03142161    -0.20371305     0             -0.17780055     0.028259158  
    353500   0.040092945   -0.2063142      0             -0.1732507     -0.053377656  
    354000   0.029231505   -0.20428217     0             -0.18017579    -0.13997992   
    354500   0.025596043   -0.20512113     0             -0.18401281    -0.13607416   
    355000   0.03643539    -0.20553195     0             -0.17548474     0.0077637078 
    355500   0.027574375   -0.20522292     0             -0.18248313    -0.024862047  
    356000   0.029507689   -0.20689407     0             -0.18255993     0.1838633    
    356500   0.024449349   -0.20532802     0             -0.18516535    -0.092356636  
    357000   0.020276346   -0.20652269     0             -0.18980137    -0.01493865   
    357500   0.0204428     -0.20637729     0             -0.18951871     0.10592044   
    358000   0.023144337   -0.20842209     0             -0.18933562    -0.315484     
    358500   0.018562471   -0.20714109     0             -0.19183315    -0.048071686  
    359000   0.026373239   -0.20758015     0             -0.1858309      0.26374379   
    359500   0.026717513   -0.20699479     0             -0.18496163    -0.062051388  
    360000   0.020117203   -0.20827982     0             -0.19168974    -0.10736984   
    360500   0.032822967   -0.20811491     0             -0.18104675    -0.10371955   
    361000   0.023868771   -0.20826043     0             -0.18857654    -0.054482272  
    361500   0.019855303   -0.20802195     0             -0.19164786     0.12812441   
    362000   0.035632592   -0.20833886     0             -0.1789537      0.38378772   
    362500   0.031007028   -0.20640823     0             -0.18083763    -0.064547016  
    363000   0.033802772   -0.20586318     0             -0.17798701    -0.18049167   
    363500   0.024318255   -0.20794712     0             -0.18789256    -0.096175706  
    364000   0.019114144   -0.20886672     0             -0.19310384     0.039148391  
    364500   0.023554052   -0.21069877     0             -0.19127442     0.037342859  
    365000   0.03381548    -0.20595262     0             -0.17806597     0.16484489   
    365500   0.025858434   -0.20678092     0             -0.18545622     0.19320524   
    366000   0.02112333    -0.20783029     0             -0.19041049     0.15904913   
    366500   0.027134093   -0.20859117     0             -0.18621447     0.029532899  
    367000   0.025694348   -0.20852707     0             -0.18733768    -0.0013699734 
    367500   0.026294754   -0.20942881     0             -0.18774429    -0.27155663   
    368000   0.037779363   -0.21078638     0             -0.17963084    -0.13022981   
    368500   0.025713086   -0.21242923     0             -0.19122439     0.10800507   
    369000   0.021479544   -0.21230475     0             -0.19459119    -0.052022143  
    369500   0.021291185   -0.21440866     0             -0.19685044    -0.027946355  
    370000   0.020213706   -0.21583595     0             -0.19916629    -0.13445661   
    370500   0.019760739   -0.21780956     0             -0.20151345    -0.13477449   
    371000   0.021185823   -0.21860279     0             -0.20113146     0.06855693   
    371500   0.024996757   -0.21765311     0             -0.19703901     0.32439901   
    372000   0.025175474   -0.21847144     0             -0.19770996     0.099856336  
    372500   0.023453144   -0.21896225     0             -0.19962112     0.14876427   
    373000   0.020865966   -0.21982043     0             -0.20261288    -0.098898272  
    373500   0.018820198   -0.22108826     0             -0.20556778     0.012127918  
    374000   0.020483401   -0.22107751     0             -0.20418544     0.12471386   
    374500   0.018935093   -0.22222566     0             -0.20661044    -0.023837515  
    375000   0.019845121   -0.22405948     0             -0.20769379    -0.069499509  
    375500   0.018462275   -0.22465084     0             -0.20942553    -0.14101569   
    376000   0.01808735    -0.22450221     0             -0.2095861     -0.057077451  
    376500   0.017826028   -0.22506889     0             -0.21036828     0.13182976   
    377000   0.033999696   -0.22335549     0             -0.19531693     0.2271575    
    377500   0.024478387   -0.22412405     0             -0.20393743    -0.049141897  
    378000   0.020373675   -0.22498282     0             -0.20818124    -0.4167324    
    378500   0.027163693   -0.21979142     0             -0.19739031    -0.27383528   
    379000   0.030464054   -0.22040046     0             -0.19527764     0.054312384  
    379500   0.024857463   -0.22188358     0             -0.20138435    -0.1958784    
    380000   0.02202588    -0.2233835      0             -0.2052194      0.26431106   
    380500   0.034394129   -0.22317255     0             -0.19480871    -0.22892413   
    381000   0.039672743   -0.21717197     0             -0.184455       0.14851482   
[...]
   1896500   0.057785906   -0.21599952     0             -0.16834515     0.048926218  
   1897000   0.053231736   -0.21840099     0             -0.17450232    -0.49182601   
   1897500   0.054099746   -0.21753326     0             -0.17291877    -0.071225608  
   1898000   0.057850472   -0.21660014     0             -0.16889253     0.033648697  
   1898500   0.056730641   -0.21608207     0             -0.16929795     0.15777692   
   1899000   0.054272832   -0.2201629      0             -0.17540566    -0.04237238   
   1899500   0.053264514   -0.22203872     0             -0.17811302     0.2341404    
   1900000   0.058445812   -0.21866887     0             -0.1704703     -0.20666204   
   1900500   0.06781775    -0.2160552      0             -0.16012786     0.015889332  
   1901000   0.055931993   -0.21890866     0             -0.17278316     0.11041949   
   1901500   0.052296802   -0.21983799     0             -0.17671033    -0.37391754   
   1902000   0.051476658   -0.22244462     0             -0.17999331     0.25667349   
   1902500   0.053260095   -0.22307328     0             -0.17915122     0.13527744   
   1903000   0.061057293   -0.22159843     0             -0.17124625    -0.28065321   
   1903500   0.068557994   -0.21928115     0             -0.16274336    -0.045133637  
   1904000   0.061822194   -0.21942309     0             -0.16844012     0.13160122   
   1904500   0.054923356   -0.22219199     0             -0.17689828     0.36540572   
   1905000   0.065609173   -0.22112319     0             -0.1670172      0.42216923   
   1905500   0.058760277   -0.22011106     0             -0.17165316     0.31286297   
   1906000   0.070389157   -0.21797148     0             -0.15992358     0.13869141   
   1906500   0.060670657   -0.2169371      0             -0.16690377    -0.37201225   
   1907000   0.067379962   -0.21702501     0             -0.1614587      0.078490801  
   1907500   0.062046057   -0.21827705     0             -0.16710946    -0.27761095   
   1908000   0.061501847   -0.21835148     0             -0.16763269    -0.29565187   
   1908500   0.056084392   -0.21981507     0             -0.17356389    -0.62854088   
   1909000   0.052422318   -0.22096514     0             -0.17773397    -0.23016625   
   1909500   0.050652158   -0.2238615      0             -0.18209013    -0.21989377   
   1910000   0.063611289   -0.22119014     0             -0.16873175    -0.078502984  
   1910500   0.067650456   -0.2233761      0             -0.16758673     0.2496439    
   1911000   0.068461813   -0.21870778     0             -0.1622493      0.054685444  
   1911500   0.056123637   -0.21990281     0             -0.17361927    -0.055805861  
   1912000   0.064078351   -0.21428766     0             -0.1614441     -0.26354408   
   1912500   0.066906568   -0.21712192     0             -0.16194601    -0.32802192   
   1913000   0.062794596   -0.21814796     0             -0.16636307    -0.0049760466 
   1913500   0.059230269   -0.21843671     0             -0.16959122    -0.49843186   
   1914000   0.065585763   -0.21812009     0             -0.16403341     0.34553821   
   1914500   0.062424849   -0.21804603     0             -0.16656607     0.1259901    
   1915000   0.057727973   -0.22126241     0             -0.17365582     0.39942509   
   1915500   0.062064829   -0.21978004     0             -0.16859697    -0.025761423  
   1916000   0.055155886   -0.21935082     0             -0.17386536    -0.037145886  
   1916500   0.053317517   -0.21977827     0             -0.17580886     0.017839286  
   1917000   0.058267888   -0.22072784     0             -0.172676      -0.16810863   
   1917500   0.065272964   -0.2194959      0             -0.16566718    -0.25539385   
   1918000   0.059753174   -0.21734834     0             -0.16807163     0.19541943   
   1918500   0.058613427   -0.21731448     0             -0.16897768    -0.60079859   
   1919000   0.053272782   -0.21796806     0             -0.17403554    -0.070502402  
   1919500   0.055760311   -0.2193612      0             -0.17337728     0.38902223   
   1920000   0.054722601   -0.21690869     0             -0.17178055     0.25938392   
   1920500   0.059904262   -0.21775999     0             -0.16835868     0.42141104   
   1921000   0.065376833   -0.21838876     0             -0.16447438     0.32231084   
   1921500   0.062986598   -0.21786192     0             -0.1659187      0.16162977   
   1922000   0.075710515   -0.21248606     0             -0.15004979    -0.58477403   
   1922500   0.082648512   -0.21299953     0             -0.1448417      0.26914959   
   1923000   0.064775828   -0.21524436     0             -0.16182561     0.77931825   
   1923500   0.072659703   -0.21174143     0             -0.15182107    -0.019203474  
   1924000   0.062455269   -0.21381339     0             -0.16230834     0.6482547    
   1924500   0.058259089   -0.21336809     0             -0.1653235      0.072001247  
   1925000   0.059579465   -0.21390218     0             -0.16476872    -0.088829768  
   1925500   0.055335884   -0.21466345     0             -0.16902955    -0.066979547  
   1926000   0.064607317   -0.21479252     0             -0.16151273    -0.16198222   
   1926500   0.061975971   -0.21187095     0             -0.16076116    -0.17696757   
   1927000   0.05370986    -0.21208108     0             -0.16778811    -0.04217689   
   1927500   0.059953384   -0.21241981     0             -0.16297799    -0.38193361   
   1928000   0.053412956   -0.21219838     0             -0.16815026     0.11080919   
   1928500   0.052181754   -0.21321656     0             -0.17018378     0.52100386   
   1929000   0.088573881   -0.20816947     0             -0.13512515     0.36277191   
   1929500   0.07436416    -0.20946561     0             -0.14813964     0.49433862   
   1930000   0.066725031   -0.20958196     0             -0.15455576    -0.20119733   
   1930500   0.080397718   -0.21164472     0             -0.14534305    -0.37600295   
   1931000   0.069118702   -0.21052235     0             -0.15352215    -0.17995704   
   1931500   0.067743102   -0.20722405     0             -0.15135828     0.6147709    
   1932000   0.066743233   -0.21173637     0             -0.15669516    -0.067705078  
   1932500   0.055521183   -0.21378405     0             -0.16799734    -0.10462117   
   1933000   0.055974564   -0.216636       0             -0.17047539     0.16271694   
   1933500   0.062239777   -0.21760716     0             -0.16627982    -0.32526984   
   1934000   0.057087678   -0.21885172     0             -0.17177316     0.10516831   
   1934500   0.066646802   -0.21423057     0             -0.15926888    -0.048865224  
   1935000   0.077081993   -0.21058897     0             -0.14702169    -0.23879674   
   1935500   0.059167349   -0.21149092     0             -0.16269732     0.12055204   
   1936000   0.071989395   -0.2100133      0             -0.15064573    -0.17517245   
   1936500   0.059552415   -0.2076177      0             -0.15850655     0.33683329   
   1937000   0.063481381   -0.20898248     0             -0.15663123     0.062160943  
   1937500   0.069678627   -0.20992859     0             -0.15246664     0.46830941   
   1938000   0.063027594   -0.21066636     0             -0.15868932    -0.43174765   
   1938500   0.054410085   -0.21286697     0             -0.16799655    -0.011812503  
   1939000   0.054078112   -0.21239679     0             -0.16780014    -0.21373545   
   1939500   0.048710444   -0.21332531     0             -0.17315521    -0.071287402  
   1940000   0.059848571   -0.21373285     0             -0.16437747    -0.096508188  
   1940500   0.066360809   -0.21117953     0             -0.15645369     0.51212403   
   1941000   0.056752889   -0.21476598     0             -0.16796351    -0.25511391   
   1941500   0.053795595   -0.21503808     0             -0.17067441     0.17836984   
   1942000   0.068731546   -0.2138209      0             -0.15713998    -0.37386507   
   1942500   0.072181446   -0.21405988     0             -0.15453393     0.3883678    
   1943000   0.069604392   -0.2117739      0             -0.15437317     0.28659142   
   1943500   0.05983812    -0.21427625     0             -0.16492948     0.18293265   
   1944000   0.059622535   -0.21525854     0             -0.16608956     0.27171093   
   1944500   0.055156387   -0.21509433     0             -0.16960845     0.028532409  
   1945000   0.073101823   -0.21281284     0             -0.15252788     0.1465253    
   1945500   0.067649769   -0.21098701     0             -0.1551982      0.32955989   
   1946000   0.057823719   -0.21256837     0             -0.16488283    -0.45066321   
   1946500   0.050002576   -0.21345506     0             -0.17221938    -0.2959623    
   1947000   0.057183447   -0.21330839     0             -0.16615086    -0.46489027   
   1947500   0.068979425   -0.2131434      0             -0.15625806    -0.16009429   
   1948000   0.060237372   -0.21021125     0             -0.16053524     0.092794032  
   1948500   0.06851979    -0.21053277     0             -0.15402649    -0.098540623  
   1949000   0.065751589   -0.21048398     0             -0.15626055     0.48481736   
   1949500   0.05460249    -0.21283765     0             -0.16780856     0.30076202   
   1950000   0.056599067   -0.21402532     0             -0.1673497      0.075936598  
   1950500   0.07257168    -0.20962565     0             -0.14977789     0.23227277   
   1951000   0.060772819   -0.21121967     0             -0.16110208     0.28450775   
   1951500   0.056353027   -0.21336555     0             -0.16689284     0.099341348  
   1952000   0.054494684   -0.21355571     0             -0.16861552    -0.16853918   
   1952500   0.072488996   -0.21124345     0             -0.15146388    -0.54002319   
   1953000   0.066153788   -0.21245192     0             -0.15789681     0.011107197  
   1953500   0.058149571   -0.21314205     0             -0.16518779    -0.023050426  
   1954000   0.070973887   -0.20989369     0             -0.15136358     0.11776635   
   1954500   0.075382293   -0.20867099     0             -0.14650539    -0.11089314   
   1955000   0.062359635   -0.20663646     0             -0.15521027    -0.16898672   
   1955500   0.056069992   -0.21070497     0             -0.16446567     0.61055033   
   1956000   0.051861401   -0.21096656     0             -0.16819797    -0.1278475    
   1956500   0.053851327   -0.21111284     0             -0.16670321    -0.0071965793 
   1957000   0.056151691   -0.21270635     0             -0.16639968    -0.048482989  
   1957500   0.053276888   -0.2120317      0             -0.16809579    -0.19982575   
   1958000   0.069837579   -0.21072104     0             -0.15312801     0.33684149   
   1958500   0.065221384   -0.21052243     0             -0.15673624     0.00328086   
   1959000   0.055345358   -0.21143833     0             -0.16579661     0.218364     
   1959500   0.068546174   -0.21331589     0             -0.15678784    -0.27131872   
   1960000   0.054293864   -0.21302711     0             -0.16825253     0.15477273   
   1960500   0.064601478   -0.21226333     0             -0.15898837     0.006562445  
   1961000   0.056271197   -0.21359113     0             -0.1671859      0.61279145   
   1961500   0.060611688   -0.21446923     0             -0.16448452     0.19764387   
   1962000   0.066365889   -0.21311899     0             -0.15838896    -0.11548788   
   1962500   0.064884643   -0.21166053     0             -0.15815205     0.16089491   
   1963000   0.057733443   -0.21515433     0             -0.16754323     0.20007329   
   1963500   0.050271995   -0.21495396     0             -0.1734961     -0.10400281   
   1964000   0.054132992   -0.2153058      0             -0.17066389     0.59558166   
   1964500   0.064775151   -0.21676694     0             -0.16334875    -0.46054323   
   1965000   0.064061316   -0.21380406     0             -0.16097455    -0.33002691   
   1965500   0.058920466   -0.21530181     0             -0.16671181    -0.19575771   
   1966000   0.055196454   -0.21545752     0             -0.1699386      0.27360818   
   1966500   0.060370777   -0.21605806     0             -0.16627203    -0.49993636   
   1967000   0.068320845   -0.21454633     0             -0.1582041      0.18664145   
   1967500   0.065682465   -0.21087208     0             -0.15670565    -0.36195729   
   1968000   0.075902437   -0.20884654     0             -0.146252      -0.0011753465 
   1968500   0.066955041   -0.21137829     0             -0.15616241    -0.0957055    
   1969000   0.054088793   -0.21107185     0             -0.16646639     0.091238232  
   1969500   0.063183945   -0.21200948     0             -0.15990351     0.12651129   
   1970000   0.064493614   -0.20983664     0             -0.15665062     0.2608722    
   1970500   0.056005206   -0.20929841     0             -0.16311254    -0.036592289  
   1971000   0.057640698   -0.20667853     0             -0.15914391     0.020967203  
   1971500   0.069982738   -0.20512347     0             -0.14741074    -0.20052001   
   1972000   0.064954834   -0.20459936     0             -0.15103299     0.77492089   
   1972500   0.077269951   -0.20391119     0             -0.1401889      0.25901913   
   1973000   0.07177174    -0.20218984     0             -0.14300176    -0.26531526   
   1973500   0.061635355   -0.20522361     0             -0.15439472     0.046385467  
   1974000   0.062777902   -0.20799928     0             -0.15622816     0.012956785  
   1974500   0.056044916   -0.20793887     0             -0.16172025     0.40326219   
   1975000   0.057169665   -0.20622239     0             -0.15907622    -0.002757991  
   1975500   0.064444109   -0.20787752     0             -0.15473233     0.24890767   
   1976000   0.055751738   -0.20795755     0             -0.1619807     -0.033210621  
   1976500   0.050902198   -0.21170153     0             -0.16972397     0.08663804   
   1977000   0.071850443   -0.21108686     0             -0.15183388     0.068004872  
   1977500   0.06578581    -0.20921695     0             -0.1549653     -0.059226272  
   1978000   0.06963602    -0.2078967      0             -0.15046989    -0.023371983  
   1978500   0.06946478    -0.2047779      0             -0.1474923      0.45912972   
   1979000   0.066368667   -0.20483716     0             -0.15010484     0.20076184   
   1979500   0.064027645   -0.2047814      0             -0.15197965     0.3647081    
   1980000   0.058938962   -0.20654567     0             -0.15794042     0.13243145   
   1980500   0.05789928    -0.20675393     0             -0.15900607     0.35757285   
   1981000   0.065943034   -0.20642028     0             -0.15203897    -0.13389645   
   1981500   0.063779745   -0.2069302      0             -0.15433289     0.025757738  
   1982000   0.052310123   -0.20784923     0             -0.16471059    -0.48270568   
   1982500   0.051212349   -0.20896552     0             -0.16673218    -0.04513735   
   1983000   0.059801368   -0.20717892     0             -0.15786246     0.074499669  
   1983500   0.067450922   -0.20331817     0             -0.14769335     0.15490652   
   1984000   0.058652903   -0.20779528     0             -0.15942593     0.10895731   
   1984500   0.084296471   -0.20545286     0             -0.135936       0.081109614  
   1985000   0.064669926   -0.20872741     0             -0.155396       0.49843315   
   1985500   0.054857897   -0.20936614     0             -0.16412642    -0.19706339   
   1986000   0.052390504   -0.21202759     0             -0.16882266    -0.074240398  
   1986500   0.05437924    -0.21012256     0             -0.16527757    -0.16091855   
   1987000   0.05890263    -0.21102028     0             -0.16244499    -0.13422894   
   1987500   0.073328847   -0.21081697     0             -0.1503448     -0.11008594   
   1988000   0.062628838   -0.20932881     0             -0.15768062    -0.11551486   
   1988500   0.05667301    -0.20893245     0             -0.16219586    -0.16790782   
   1989000   0.050783679   -0.20855245     0             -0.16667262     0.091315502  
   1989500   0.065869517   -0.20895323     0             -0.15463255     0.3097731    
   1990000   0.054804986   -0.21131912     0             -0.16612303    -0.57426062   
   1990500   0.05609142    -0.20953332     0             -0.16327635    -0.058988364  
   1991000   0.060883097   -0.2092074      0             -0.15899887    -0.044159674  
   1991500   0.058001349   -0.20903824     0             -0.1612062      0.14407168   
   1992000   0.057567859   -0.2122524      0             -0.16477785    -0.30772338   
   1992500   0.058692884   -0.20986173     0             -0.1614594     -0.45515553   
   1993000   0.054420515   -0.21376637     0             -0.16888735     0.14839593   
   1993500   0.04995459    -0.21569348     0             -0.17449737    -0.44050651   
   1994000   0.056758779   -0.21247342     0             -0.1656661      0.37868819   
   1994500   0.053466573   -0.21563699     0             -0.17154465    -0.4730405    
   1995000   0.086925516   -0.20980755     0             -0.13812259    -0.48805484   
   1995500   0.088490191   -0.21203501     0             -0.13905971     0.10827299   
   1996000   0.078252371   -0.21223128     0             -0.14769881    -0.018702385  
   1996500   0.070399399   -0.21432876     0             -0.15627241    -0.12942854   
   1997000   0.072500987   -0.21055344     0             -0.15076397     0.26754797   
   1997500   0.076629189   -0.2135705      0             -0.15037662     0.17209239   
   1998000   0.066063559   -0.21059427     0             -0.15611356    -0.17594166   
   1998500   0.066594554   -0.20975691     0             -0.15483831    -0.14283119   
   1999000   0.057889814   -0.21030958     0             -0.16256952     0.17702108   
   1999500   0.057988919   -0.20926192     0             -0.16144014     0.17365698   
   2000000   0.051957097   -0.21386851     0             -0.17102099     0.066462846  
   2000001   0.051960683   -0.21389418     0             -0.17104371    -0.2837943    
Loop time of 541.124 on 4 procs for 1000000 steps with 1520 atoms

Performance: 159667.520 tau/day, 1848.004 timesteps/s, 2.809 Matom-step/s
91.4% CPU use with 4 MPI tasks x 1 OpenMP threads

MPI task timing breakdown:
Section |  min time  |  avg time  |  max time  |%varavg| %total
---------------------------------------------------------------
Pair    | 79.891     | 87.723     | 93.78      |  60.0 | 16.21
Bond    | 0.2234     | 0.23989    | 0.25303    |   2.7 |  0.04
Neigh   | 10.865     | 10.87      | 10.878     |   0.1 |  2.01
Comm    | 59.213     | 65.164     | 72.874     |  68.5 | 12.04
Output  | 2.0058     | 2.0607     | 2.1152     |   2.8 |  0.38
Modify  | 357.85     | 358.77     | 359.35     |   3.0 | 66.30
Other   |            | 16.3       |            |       |  3.01

Nlocal:            380 ave         404 max         339 min
Histogram: 1 0 0 0 0 0 1 0 0 2
Nghost:         987.75 ave        1030 max         948 min
Histogram: 1 0 1 0 0 0 0 1 0 1
Neighs:              0 ave           0 max           0 min
Histogram: 4 0 0 0 0 0 0 0 0 0

Total # of neighbors = 0
Ave neighs/atom = 0
Ave special neighs/atom = 2.0657895
Neighbor list builds = 4418
Dangerous builds = 0

# Write data for deformation

write_data data.hydrogel
System init for write_data ...
WARNING: Using a manybody potential with bonds/angles/dihedrals and special_bond exclusions (src/pair.cpp:243)
Hybrid pair style last /omp style table/omp
Last active /omp style is pair_style table/omp
WARNING: More than one fix rigid command (src/RIGID/fix_rigid_small.cpp:529)
WARNING: More than one fix rigid command (src/RIGID/fix_rigid_small.cpp:529)
WARNING: One or more atoms are time integrated more than once (src/modify.cpp:296)
Total wall time: 0:17:12
