LAMMPS (29 Aug 2024)
OMP_NUM_THREADS environment is not set. Defaulting to 1 thread. (src/comm.cpp:98)
  using 1 OpenMP thread(s) per MPI task
package omp 0
using multi-threaded neighbor list subroutines
# Input Script of lammps for assembly simulation of polimeric network.

# Fco. Vazquez and Felipe Benavides

# Initialization
units lj
dimension 3
boundary p p p

# Styles of atoms and that stuff
atom_style bond
bond_style zero nocoeff
#pair_style hybrid/overlay/omp zero 0.0 lj/cut/omp 1.12 table/omp linear 5000000 threebody/table
pair_style hybrid/overlay/omp zero 0.0 lj/cut/omp 1.12 sw/omp threebody off threebody/table
newton on

# Create simulaiton box
region simulation_box block -$L $L -$L $L -$L $L
region simulation_box block -6.932675 $L -$L $L -$L $L
region simulation_box block -6.932675 6.932675 -$L $L -$L $L
region simulation_box block -6.932675 6.932675 -6.932675 $L -$L $L
region simulation_box block -6.932675 6.932675 -6.932675 6.932675 -$L $L
region simulation_box block -6.932675 6.932675 -6.932675 6.932675 -6.932675 $L
region simulation_box block -6.932675 6.932675 -6.932675 6.932675 -6.932675 6.932675
# N-atom-types region-ID keyword value Is necesesary the extra/special/per/atom (# of special neighbors per atom)
create_box 4 simulation_box     bond/types 1     extra/bond/per/atom 4     extra/special/per/atom 5
Created orthogonal box = (-6.932675 -6.932675 -6.932675) to (6.932675 6.932675 6.932675)
  2 by 1 by 2 MPI processor grid

# Atom types
mass 1 1.0      # CL
mass 2 1.0      # MO
mass 3 0.5      # PA
mass 4 0.5      # PB

# Coefficients
include potential.in
# Script with the pair-wise interaction and bonds between particles

bond_coeff * nocoeff
pair_coeff 1 3 zero
pair_coeff 1 4 zero
pair_coeff 2 3 zero
pair_coeff 2 4 zero
pair_coeff 3 3 zero
pair_coeff 1 1 lj/cut/omp 1.0 1.0 1.12
pair_coeff 2 2 lj/cut/omp 1.0 1.0 1.12
pair_coeff 1 2 lj/cut/omp 1.0 1.0 1.12
pair_coeff 3 4 sw/omp sysFiles/patchyPot.sw NULL NULL PA PB
  disabling sw potential three-body terms
pair_coeff 4 4 sw/omp sysFiles/patchyPot.sw NULL NULL PA PB
pair_coeff * * threebody/table swapMech.3b NULL NULL PA PB
pair_modify pair lj/cut/omp shift yes


# Molecules
include molecules.in
# Script with all molecule information and create groups for computes

# Read the molecule information
molecule CL sysFiles/molecule.patchy.CL
Read molecule template CL:
# Patchy Cross-Linker
  1 molecules
  0 fragments
  5 atoms with max type 3
  4 bonds with max type 1
  0 angles with max type 0
  0 dihedrals with max type 0
  0 impropers with max type 0
molecule MO sysFiles/molecule.patchy.MO
Read molecule template MO:
# Patchy Monomer
  1 molecules
  0 fragments
  3 atoms with max type 4
  2 bonds with max type 1
  0 angles with max type 0
  0 dihedrals with max type 0
  0 impropers with max type 0

# Introduce the molecules
# ID style args keyword arg
region spawn_box block -$L $L -$L $L -$L $L
region spawn_box block -6.932675 $L -$L $L -$L $L
region spawn_box block -6.932675 6.932675 -$L $L -$L $L
region spawn_box block -6.932675 6.932675 -6.932675 $L -$L $L
region spawn_box block -6.932675 6.932675 -6.932675 6.932675 -$L $L
region spawn_box block -6.932675 6.932675 -6.932675 6.932675 -6.932675 $L
region spawn_box block -6.932675 6.932675 -6.932675 6.932675 -6.932675 6.932675

# create_atoms type style args keyword values
# style_random: N seed region-ID
# keyword_mol: template-ID seed
# keyword_overlap: overlap value = only insert if at least this distance from all existing atoms
# keyword_maxtry: maxtry value = number of attempts to insert a particle before failure
create_atoms 0 random ${NCL} ${seed1} spawn_box mol CL ${seed1} overlap 1.0 maxtry 5000 #xls
create_atoms 0 random 10 ${seed1} spawn_box mol CL ${seed1} overlap 1.0 maxtry 5000 
create_atoms 0 random 10 1234 spawn_box mol CL ${seed1} overlap 1.0 maxtry 5000 
create_atoms 0 random 10 1234 spawn_box mol CL 1234 overlap 1.0 maxtry 5000 
Created 50 atoms
  using lattice units in orthogonal box = (-6.932675 -6.932675 -6.932675) to (6.932675 6.932675 6.932675)
  create_atoms CPU = 0.003 seconds
create_atoms 0 random ${NMO} ${seed2} spawn_box mol MO ${seed2} overlap 1.0 maxtry 5000 #mon
create_atoms 0 random 490 ${seed2} spawn_box mol MO ${seed2} overlap 1.0 maxtry 5000 
create_atoms 0 random 490 4321 spawn_box mol MO ${seed2} overlap 1.0 maxtry 5000 
create_atoms 0 random 490 4321 spawn_box mol MO 4321 overlap 1.0 maxtry 5000 
Created 1470 atoms
  using lattice units in orthogonal box = (-6.932675 -6.932675 -6.932675) to (6.932675 6.932675 6.932675)
  create_atoms CPU = 0.079 seconds

# Create patchy particles
group CrossLinker type 1 3
50 atoms in group CrossLinker
group Monomer type 2 4
1470 atoms in group Monomer
group Patches type 3 4
1020 atoms in group Patches
group CL type 1
10 atoms in group CL
group MO type 2
490 atoms in group MO
group PA type 3
40 atoms in group PA
group CM type 1 2
500 atoms in group CM

# Fix rigid bodies
fix frCL CrossLinker rigid/small/omp molecule
  create bodies CPU = 0.000 seconds
  10 rigid bodies with 50 atoms
  0.46400431 = max distance from body owner to body atom
fix frMO Monomer rigid/small/omp molecule
  create bodies CPU = 0.000 seconds
  490 rigid bodies with 1470 atoms
  0.5 = max distance from body owner to body atom

# Neighbor list
neighbor 1.12 bin # extra-distance style
neigh_modify exclude molecule/intra CrossLinker
neigh_modify exclude molecule/intra Monomer

# COMPUTES

# Compute global kinetic and potential energy and temperature
compute t all temp
compute tCM CM temp
compute ep all pe
compute ek all ke
compute ekCM CM ke
compute stressVirial all pressure t ke pair
compute wcaPair all pair lj/cut/omp epair
compute patchPair all pair sw/omp epair
compute swapPair all pair threebody/table epair
compute disc CM displace/atom
compute daux CM chunk/atom type pbc yes
compute dis CM reduce/chunk daux sum c_disc[4]
#compute disM CM reduce/chunk daux sum c_disc[4]

# Energy minimization
minimize 1.0e-4 1.0e-6 1000 10000
WARNING: Using a manybody potential with bonds/angles/dihedrals and special_bond exclusions (src/pair.cpp:243)
Hybrid pair style last /omp style sw/omp
Last active /omp style is pair_style sw/omp
WARNING: More than one fix rigid command (src/RIGID/fix_rigid_small.cpp:529)
WARNING: More than one fix rigid command (src/RIGID/fix_rigid_small.cpp:529)
Neighbor list info ...
  update: every = 1 steps, delay = 0 steps, check = yes
  max neighbors/atom: 2000, page size: 100000
  master list distance cutoff = 2.24
  ghost atom cutoff = 2.24
  binsize = 1.12, bins = 13 13 13
  6 neighbor lists, perpetual/occasional/extra = 6 0 0
  (1) pair zero, perpetual, skip from (5)
      attributes: half, newton on, omp
      pair build: skip/omp
      stencil: none
      bin: none
  (2) pair lj/cut/omp, perpetual, skip from (5)
      attributes: half, newton on, omp
      pair build: skip/omp
      stencil: none
      bin: none
  (3) pair sw/omp, perpetual, skip trim from (5)
      attributes: half, newton on, omp, cut 1.87
      pair build: skip/trim/omp
      stencil: none
      bin: none
  (4) pair threebody/table, perpetual, skip from (6)
      attributes: full, newton on, omp, cut 1.7200000000000002
      pair build: skip/omp
      stencil: none
      bin: none
  (5) neighbor class addition, perpetual
      attributes: half, newton on, omp
      pair build: half/bin/newton/omp
      stencil: half/bin/3d
      bin: standard
  (6) neighbor class addition, perpetual
      attributes: full, newton on, omp, cut 1.7200000000000002
      pair build: full/bin/omp
      stencil: full/bin/3d
      bin: standard
WARNING: Cannot count rigid body degrees-of-freedom before bodies are fully initialized (src/RIGID/fix_rigid_small.cpp:1129)
WARNING: Cannot count rigid body degrees-of-freedom before bodies are fully initialized (src/RIGID/fix_rigid_small.cpp:1129)
WARNING: Cannot count rigid body degrees-of-freedom before bodies are fully initialized (src/RIGID/fix_rigid_small.cpp:1129)
WARNING: Cannot count rigid body degrees-of-freedom before bodies are fully initialized (src/RIGID/fix_rigid_small.cpp:1129)
WARNING: Cannot count rigid body degrees-of-freedom before bodies are fully initialized (src/RIGID/fix_rigid_small.cpp:1129)
WARNING: Cannot count rigid body degrees-of-freedom before bodies are fully initialized (src/RIGID/fix_rigid_small.cpp:1129)
Per MPI rank memory allocation (min/avg/max) = 20.01 | 20.01 | 20.02 Mbytes
   Step          Temp          E_pair         E_mol          TotEng         Press     
         0   0              0.00067516832  0              0.00067516832  0.0066653253 
         1   0              0.00067516832  0              0.00067516832  0.0066653253 
Loop time of 0.000189092 on 4 procs for 1 steps with 1520 atoms

97.6% CPU use with 4 MPI tasks x 1 OpenMP threads

Minimization stats:
  Stopping criterion = quadratic factors are zero
  Energy initial, next-to-last, final = 
    0.000675168319707251 0.000675168319707251 0.000675168319707251
  Force two-norm initial, final = 21.154727 21.154727
  Force max component initial, final = 6.3589627 6.3589627
  Final line search alpha, max atom move = 0.015725835 0.1
  Iterations, force evaluations = 1 2

MPI task timing breakdown:
Section |  min time  |  avg time  |  max time  |%varavg| %total
---------------------------------------------------------------
Pair    | 3.4143e-05 | 4.03e-05   | 5.1256e-05 |   0.0 | 21.31
Bond    | 1.9e-07    | 2.4275e-07 | 3.7e-07    |   0.0 |  0.13
Neigh   | 0          | 0          | 0          |   0.0 |  0.00
Comm    | 8.9737e-05 | 0.00010148 | 0.00010916 |   0.0 | 53.67
Output  | 0          | 0          | 0          |   0.0 |  0.00
Modify  | 4.207e-06  | 5.1345e-06 | 6.813e-06  |   0.0 |  2.72
Other   |            | 4.193e-05  |            |       | 22.18

Nlocal:            380 ave         382 max         378 min
Histogram: 1 0 0 0 0 2 0 0 0 1
Nghost:        1000.75 ave        1005 max         993 min
Histogram: 1 0 0 0 0 0 0 1 1 1
Neighs:              0 ave           0 max           0 min
Histogram: 4 0 0 0 0 0 0 0 0 0

Total # of neighbors = 0
Ave neighs/atom = 0
Ave special neighs/atom = 2.0657895
Neighbor list builds = 0
Dangerous builds = 0

# DUMPS and FIXES

thermo ${sstep}
thermo 500

# Save atom positions
dump dumpID all atom ${sstep} info/dumps/assembly/patchyParticles_assembly.*.dumpf
dump dumpID all atom 500 info/dumps/assembly/patchyParticles_assembly.*.dumpf
dump_modify dumpID pbc yes # remap atoms via periodic boundary conditions

# Save global energies and temperature
group Energy empty
0 atoms in group Energy
fix fixEng Energy ave/time 1 10 10 c_t c_ep c_ek c_tCM file info/energy_assembly.fixf

group PairE1 empty
0 atoms in group PairE1
group PairE2 empty
0 atoms in group PairE2
group PairE3 empty
0 atoms in group PairE3

fix fixwca PairE1 ave/time 1 10 10 c_wcaPair file info/wcaPair_assembly.fixf
fix fixpatch PairE2 ave/time 1 10 10 c_patchPair file info/patchPair_assembly.fixf
fix fixswap PairE3 ave/time 1 10 10 c_swapPair file info/swapPair_assembly.fixf

# Save Atom displacement
group Displ empty
0 atoms in group Displ
fix fixDispl Displ ave/time 1 ${Nave} ${Nave} c_dis[1] c_dis[2] c_dis[3] c_dis[4] file info/cmdisplacement_assembly.fixf
fix fixDispl Displ ave/time 1 100000 ${Nave} c_dis[1] c_dis[2] c_dis[3] c_dis[4] file info/cmdisplacement_assembly.fixf
fix fixDispl Displ ave/time 1 100000 100000 c_dis[1] c_dis[2] c_dis[3] c_dis[4] file info/cmdisplacement_assembly.fixf

# Save Stress tensor
group Stress empty
0 atoms in group Stress
fix fixStress5 Stress ave/time 1 ${Nave} ${Nave} c_stressVirial[*] file info/stressVirial_assembly.fixf
fix fixStress5 Stress ave/time 1 100000 ${Nave} c_stressVirial[*] file info/stressVirial_assembly.fixf
fix fixStress5 Stress ave/time 1 100000 100000 c_stressVirial[*] file info/stressVirial_assembly.fixf

# RUN SIMULATION

# Brownian Dynamics using Langevin Thermostat

# Set the time integrator
fix VelVerlet all nve/omp # Use Velocity Verlet integrator
timestep ${tstep}
timestep 0.001

# First elevate the temperature
fix ThermoLng all langevin 0.0 ${temp} ${damp} 12345 # Brownian Dynamics: langevin + nve
fix ThermoLng all langevin 0.0 0.05 ${damp} 12345 
fix ThermoLng all langevin 0.0 0.05 1 12345 
run 1000000
WARNING: Using a manybody potential with bonds/angles/dihedrals and special_bond exclusions (src/pair.cpp:243)
Hybrid pair style last /omp style sw/omp
Last active /omp style is pair_style sw/omp
WARNING: More than one fix rigid command (src/RIGID/fix_rigid_small.cpp:529)
WARNING: More than one fix rigid command (src/RIGID/fix_rigid_small.cpp:529)
WARNING: One or more atoms are time integrated more than once (src/modify.cpp:296)
WARNING: Computing temperature of portions of rigid bodies (src/RIGID/fix_rigid_small.cpp:1178)
WARNING: Computing temperature of portions of rigid bodies (src/RIGID/fix_rigid_small.cpp:1178)
Per MPI rank memory allocation (min/avg/max) = 20.32 | 20.33 | 20.33 Mbytes
   Step          Temp          E_pair         E_mol          TotEng         Press     
         1   0              0.00067516832  0              0.00067516832  0.021123967  
       500   0.00035952529  0              0              0.0002964901  -0.002371193  
      1000   0.00015858646  3.6216827e-07  0              0.00013114383 -0.0073469111 
      1500   9.9034291e-05  0              0              8.1670713e-05 -0.011984611  
      2000   9.1797e-05     0              0              7.5702329e-05  0.0095307797 
      2500   0.00010171469  0              0              8.3881164e-05  0.00066157764
      3000   0.00012179843  2.563808e-07   0              0.00010070002 -0.032853804  
      3500   0.00014387161  0              0              0.00011864675  0.020184223  
      4000   0.00017681409  0              0              0.00014581346  0.0017651131 
      4500   0.00019251553  0              0              0.00015876198  0.0061737857 
      5000   0.00021586579  0              0              0.00017801827  0.0040573602 
      5500   0.0002595638   7.028814e-08   0              0.00021412504 -0.023906076  
      6000   0.00027442865  0              0              0.00022631336 -0.025119729  
      6500   0.00028989197  0              0              0.00023906552 -0.0075973777 
      7000   0.00031462893  0              0              0.00025946537  0.0082170499 
      7500   0.00034601217  0              0              0.00028534622 -0.026382027  
      8000   0.00037245883  0              0              0.00030715601 -0.0039402865 
      8500   0.00042462783  1.3582799e-07  0              0.00035031411  0.010012875  
      9000   0.00043540613  0              0              0.00035906683  0.04157802   
      9500   0.00045013918  1.4088348e-06  0              0.00037262558  0.031776308  
     10000   0.00048729808  0              0              0.00040186062 -0.043390587  
     10500   0.00050907326  1.3394972e-08  0              0.00041983138  0.010169468  
     11000   0.00050785873  0              0              0.00041881639 -0.035558981  
     11500   0.00057005826  3.7716841e-07  0              0.00047048771  0.0015388774 
     12000   0.00057383823  3.3059284e-07  0              0.00047355837 -0.048060931  
     12500   0.00056424903 -2.3783373e-13  0              0.00046531984  0.023700006  
     13000   0.00058628242  6.9636778e-07  0              0.00048418651 -0.022337909  
     13500   0.00062030609  2.4905283e-06  0              0.000514039   -0.0077993853 
     14000   0.00065856418 -2.3158101e-08  0              0.00054307566  0.024149329  
     14500   0.00070253705 -8.2189253e-10  0              0.00057936115 -0.019264036  
     15000   0.00072207257  9.7395045e-07  0              0.00059644629 -0.01737003   
     15500   0.00072753479 -6.2859358e-32  0              0.00059997688  0.0021675968 
     16000   0.00071648838  6.2158357e-07  0              0.00059148881 -0.042027956  
     16500   0.00079107769  1.066293e-06   0              0.00065344517 -0.029526184  
     17000   0.00082494972 -1.0129119e-07  0              0.00068021086  0.012713949  
     17500   0.0012554014  -0.00039110465  0              0.00064418853  0.033637023  
     18000   0.0017520412  -0.0012951385   0              0.00014971917 -0.052379805  
     18500   0.0017868229  -0.0021407819   0             -0.00066724078  0.028855285  
     19000   0.0013267761  -0.0023467374   0             -0.0012525836  -0.015158226  
     19500   0.0016135244  -0.0034386235   0             -0.0021079967  -0.057571143  
     20000   0.0020718183  -0.004817091    0             -0.0031085224  -0.082180066  
     20500   0.0015809264  -0.0052551306   0             -0.0039513863   0.0049393512 
     21000   0.0013519056  -0.0056206482   0             -0.0045057708   0.0055180791 
     21500   0.0016988957  -0.0064858513   0             -0.0050848212   0.077538687  
     22000   0.001894184   -0.0078620347   0             -0.006299956    0.028852287  
     22500   0.0028000724  -0.010095427    0             -0.0077862887   0.039953988  
     23000   0.0025009423  -0.011245047    0             -0.009182592    0.076059523  
     23500   0.0033275697  -0.013734311    0             -0.010990161   -0.057798614  
     24000   0.0024837302  -0.014742943    0             -0.012694682   -0.0091045318 
     24500   0.0025993285  -0.016387195    0             -0.014243604    0.015033188  
     25000   0.0020995634  -0.01742529     0             -0.015693841    0.011413647  
     25500   0.0019779161  -0.018077508    0             -0.016446378   -0.062605312  
     26000   0.0027769354  -0.020185426    0             -0.017895368    0.085199875  
     26500   0.002284343   -0.021091825    0             -0.019207993   -0.018444118  
     27000   0.0017840441  -0.021638425    0             -0.020167175   -0.025261478  
     27500   0.0018754915  -0.022198178    0             -0.020651515   -0.038578626  
     28000   0.0028143955  -0.023732452    0             -0.021411502    0.0011797422 
     28500   0.0023032288  -0.025326532    0             -0.023427125    0.051232822  
     29000   0.0027760023  -0.027469048    0             -0.02517976    -0.023184979  
     29500   0.0025771301  -0.02842845     0             -0.026303166    0.03580016   
     30000   0.0026789258  -0.030004565    0             -0.027795332    0.064339717  
     30500   0.0033027603  -0.032683084    0             -0.029959394   -0.044442568  
     31000   0.002984049   -0.034153161    0             -0.031692302   -0.047364321  
     31500   0.0023282974  -0.034768329    0             -0.03284825     0.11265809   
     32000   0.0024938959  -0.036205946    0             -0.034149303   -0.027726053  
     32500   0.002191829   -0.036686609    0             -0.034879071    0.061263079  
     33000   0.0021043428  -0.037199726    0             -0.035464336   -0.015242152  
     33500   0.0034179123  -0.039465718    0             -0.036647064    0.0062793838 
     34000   0.0033170298  -0.040583972    0             -0.037848514    0.023800792  
     34500   0.0034257196  -0.042735137    0             -0.039910045    0.078278801  
     35000   0.0035401867  -0.044204793    0             -0.041285303   -0.072168467  
     35500   0.0046428409  -0.046081993    0             -0.042253177   -0.0091029426 
     36000   0.01599816    -0.046087139    0             -0.03289392     0.016650071  
     36500   0.0086268926  -0.049452775    0             -0.042338426   -0.037573556  
     37000   0.0052911309  -0.051168355    0             -0.046804912    0.068956574  
     37500   0.0035009778  -0.052296144    0             -0.049408989   -0.0035521696 
     38000   0.003429769   -0.054630387    0             -0.051801956    0.01081986   
     38500   0.012068258   -0.056627265    0             -0.046674922    0.0024975163 
     39000   0.0073977684  -0.059609639    0             -0.053508914    0.054705014  
     39500   0.020190848   -0.060888392    0             -0.044237584    0.010948261  
     40000   0.013440147   -0.061463895    0             -0.050380196   -0.1377975    
     40500   0.0091006425  -0.062829191    0             -0.055324155    0.029737046  
     41000   0.0091970498  -0.064752745    0             -0.057168204    0.0079441828 
     41500   0.0053614613  -0.065802322    0             -0.06138088    -0.034451546  
     42000   0.0040989616  -0.068081444    0             -0.064701149   -0.033573104  
     42500   0.0083964758  -0.068933184    0             -0.062008853    0.034601735  
     43000   0.0048893465  -0.069615305    0             -0.065583202    0.012279633  
     43500   0.004384634   -0.071583277    0             -0.067967396    0.13851414   
     44000   0.0042326421  -0.07293722     0             -0.069446682   -0.023622747  
     44500   0.0041958049  -0.074224559    0             -0.0707644     -0.030030021  
     45000   0.0036067169  -0.076405007    0             -0.073430652    0.088423629  
     45500   0.0034558412  -0.078025896    0             -0.075175964   -0.10443225   
     46000   0.0060891915  -0.076210935    0             -0.071189355    0.010466614  
     46500   0.004447756   -0.079006992    0             -0.075339056    0.024422785  
     47000   0.0042132477  -0.081237084    0             -0.077762541    0.036671844  
     47500   0.0040275536  -0.081441109    0             -0.078119702    0.056028167  
     48000   0.0040289681  -0.083460828    0             -0.080138255    0.019402005  
     48500   0.0078226977  -0.085629333    0             -0.07917818    -0.24977312   
     49000   0.0091956636  -0.084527458    0             -0.07694406     0.035447114  
     49500   0.016280179   -0.087030597    0             -0.073604804    0.047393927  
     50000   0.008458358   -0.088506509    0             -0.081531146   -0.041937637  
     50500   0.0068986503  -0.09067837     0             -0.084989253   -0.10377374   
     51000   0.0046855378  -0.092932117    0             -0.08906809    -0.065762014  
     51500   0.0070283218  -0.095144041    0             -0.089347987   -0.008024672  
     52000   0.025882218   -0.092229054    0             -0.070884738    0.030811339  
     52500   0.017116336   -0.096383581    0             -0.082268235   -0.046315852  
     53000   0.010338325   -0.09925977     0             -0.090734053   -0.02332269   
     53500   0.012257653   -0.10065913     0             -0.090550601   -0.080345908  
     54000   0.014572131   -0.10223214     0             -0.090214923   -0.1061785    
     54500   0.018520784   -0.10811785     0             -0.092844295   -0.037157499  
     55000   0.017128233   -0.10489795     0             -0.090772796   -0.0098896541 
     55500   0.023834102   -0.11080783     0             -0.091152536    0.028033227  
     56000   0.014956798   -0.10933337     0             -0.09699893    -0.057301787  
     56500   0.026434216   -0.11559133     0             -0.093791793    0.12549162   
     57000   0.029965015   -0.11525809     0             -0.090546808    0.053069802  
     57500   0.024113515   -0.11370314     0             -0.09381742     0.087731223  
     58000   0.012489682   -0.11781808     0             -0.1075182     -0.090917593  
     58500   0.015963938   -0.11584499     0             -0.10267999    -0.056206977  
     59000   0.0095717702  -0.11810638     0             -0.11021281    -0.041191891  
     59500   0.0069621719  -0.12007514     0             -0.11433364     0.070443955  
     60000   0.020605789   -0.12000926     0             -0.10301626     0.084413318  
     60500   0.016110115   -0.12179361     0             -0.10850807     0.012797833  
     61000   0.031845471   -0.1175067      0             -0.091244667    0.042128902  
     61500   0.01754381    -0.12368298     0             -0.1092151      0.082060978  
     62000   0.020372889   -0.12297324     0             -0.10617231     0.048626805  
     62500   0.013479424   -0.12519908     0             -0.11408298     0.052147808  
     63000   0.048623652   -0.12890156     0             -0.088803043    0.049049824  
     63500   0.030663193   -0.12689019     0             -0.10160314     0.092325338  
     64000   0.01640889    -0.12935339     0             -0.11582146     0.033044714  
     64500   0.022661231   -0.13115966     0             -0.1124716      0.046329502  
     65000   0.05183143    -0.12730584     0             -0.084561963    0.08998619   
     65500   0.037676617   -0.13092357     0             -0.099852757    0.0266877    
     66000   0.067929216   -0.13174326     0             -0.075724005    0.084236029  
     66500   0.063891319   -0.13039148     0             -0.077702163    0.11671926   
     67000   0.079099364   -0.13139418     0             -0.066163224   -0.089485684  
     67500   0.042269351   -0.13255664     0             -0.097698334   -0.031197056  
     68000   0.039542965   -0.13341809     0             -0.10080815    -0.022092382  
     68500   0.078538048   -0.13824913     0             -0.073481075    0.085225663  
     69000   0.065363409   -0.13816191     0             -0.084258599    0.11818532   
     69500   0.035515289   -0.1361041      0             -0.10681567     0.053417371  
     70000   0.016117053   -0.13844283     0             -0.12515156    -0.0054631933 
     70500   0.024077928   -0.14256792     0             -0.12271155     0.063631284  
     71000   0.017251292   -0.14372823     0             -0.12950158    -0.014960261  
     71500   0.01022244    -0.14732031     0             -0.13889016     0.031207018  
     72000   0.025709798   -0.14485173     0             -0.1236496      0.0075466062 
     72500   0.01595106    -0.14892608     0             -0.1357717     -0.087087312  
     73000   0.018118499   -0.14762547     0             -0.13268367    -0.08017964   
     73500   0.0180715     -0.15274151     0             -0.13783847    -0.11219621   
     74000   0.02749755    -0.14815894     0             -0.1254825      0.1228724    
     74500   0.022388879   -0.1540571      0             -0.13559364     0.023632761  
     75000   0.02651426    -0.1526966      0             -0.13083106    -0.14687548   
     75500   0.032739801   -0.15664632     0             -0.12964675     0.063318695  
     76000   0.045619413   -0.1561803      0             -0.11855929     0.070605921  
     76500   0.040951185   -0.15656207     0             -0.12279082    -0.074120215  
     77000   0.036021384   -0.15790137     0             -0.12819558     0.0151249    
     77500   0.074953137   -0.15863898     0             -0.096827302   -0.16918594   
     78000   0.071564291   -0.15621011     0             -0.097193108   -0.037633764  
     78500   0.049545712   -0.15717384     0             -0.11631493    -0.004340938  
     79000   0.046933848   -0.16003566     0             -0.12133068    -0.12115824   
     79500   0.023144807   -0.16420522     0             -0.14511837     0.038511225  
     80000   0.011950559   -0.16285715     0             -0.15300187     0.043791311  
     80500   0.013004179   -0.16460526     0             -0.15388109     0.1353941    
     81000   0.028025072   -0.16851821     0             -0.14540675    -0.12948135   
     81500   0.027167159   -0.16748094     0             -0.14507697    -0.27138074   
     82000   0.057165397   -0.17009874     0             -0.12295609     0.59927424   
     82500   0.035196283   -0.16693446     0             -0.13790911     0.090015958  
     83000   0.027577044   -0.16720165     0             -0.14445966    -0.055544483  
     83500   0.038349507   -0.16709356     0             -0.13546783    -0.23210609   
     84000   0.056834846   -0.16560314     0             -0.11873309     0.047881354  
     84500   0.030236036   -0.17114481     0             -0.14621002    -0.024859922  
     85000   0.032618768   -0.17526011     0             -0.14836036     0.010465303  
     85500   0.068758726   -0.16816404     0             -0.11146071     0.1045587    
     86000   0.051413336   -0.17221849     0             -0.1298194     -0.1225728    
     86500   0.028581961   -0.17479422     0             -0.1512235     -0.055111043  
     87000   0.015446392   -0.17367985     0             -0.16094166    -0.011285297  
     87500   0.012217491   -0.17912371     0             -0.1690483      0.15231353   
     88000   0.016922947   -0.17747642     0             -0.16352055     0.1420962    
     88500   0.028768305   -0.18047256     0             -0.15674817     0.11170212   
     89000   0.05050311    -0.18368444     0             -0.14203598     0.068854836  
     89500   0.038793231   -0.18110576     0             -0.1491141      0.11589061   
     90000   0.025507005   -0.18333878     0             -0.16230389    -0.089333277  
     90500   0.014650606   -0.18908344     0             -0.17700151     0.0048668758 
     91000   0.022952768   -0.18888739     0             -0.16995891    -0.11608183   
     91500   0.014750634   -0.1881383      0             -0.17597388    -0.017935858  
     92000   0.024329368   -0.18580905     0             -0.16574533     0.028128416  
     92500   0.020007409   -0.19271068     0             -0.17621115     0.027614065  
     93000   0.044186      -0.19264503     0             -0.15620612    -0.13882866   
     93500   0.048398802   -0.18746966     0             -0.14755656     0.062797341  
     94000   0.027542595   -0.18992861     0             -0.16721503    -0.0023273756 
     94500   0.057076116   -0.19190728     0             -0.14483826     0.12356022   
     95000   0.037127189   -0.1889578      0             -0.15834008     0.15097431   
     95500   0.08939178    -0.18259565     0             -0.10887684     0.018845688  
     96000   0.070066649   -0.18862028     0             -0.13083834     0.095803199  
     96500   0.039130307   -0.19294721     0             -0.16067758     0.013274195  
     97000   0.047692647   -0.18944918     0             -0.15011844     0.13484798   
     97500   0.076684558   -0.18739241     0             -0.12415287    -0.030111249  
     98000   0.063956043   -0.19295107     0             -0.14020837    -0.10783409   
     98500   0.073844011   -0.1881487      0             -0.12725168    -0.10363586   
     99000   0.059769575   -0.18910899     0             -0.13981875     0.20449173   
     99500   0.081120699   -0.18839349     0             -0.12149559    -0.29078422   
    100000   0.081885274   -0.18787912     0             -0.1203507     -0.29101033   
    100500   0.055915542   -0.18564856     0             -0.13953663     0.055985059  
    101000   0.080672189   -0.1879508      0             -0.12142278    -0.10660107   
    101500   0.086732316   -0.18516155     0             -0.11363592    -0.04130469   
    102000   0.053410434   -0.18780304     0             -0.143757       0.0019808304 
    102500   0.052438864   -0.1865646      0             -0.14331979     0.097509431  
    103000   0.044315606   -0.18923615     0             -0.15269036    -0.015508644  
    103500   0.046172538   -0.18224918     0             -0.14417203     0.13704775   
    104000   0.028453442   -0.18951467     0             -0.16604994    -0.013523762  
    104500   0.021024935   -0.19135743     0             -0.17401877    -0.14675938   
    105000   0.033947823   -0.19279657     0             -0.16480079    -0.087480307  
    105500   0.057085876   -0.18842392     0             -0.14134685     0.050994287  
    106000   0.096547732   -0.18344252     0             -0.1038224     -0.034674933  
    106500   0.067934403   -0.18705597     0             -0.13103243    -0.26295214   
    107000   0.061095943   -0.18423646     0             -0.13385241     0.026460796  
    107500   0.073918502   -0.18381663     0             -0.12285818     0.17350934   
    108000   0.050383244   -0.18343947     0             -0.14188987     0.016650244  
    108500   0.063069815   -0.18627755     0             -0.1342657      0.13103167   
    109000   0.042023082   -0.1864844      0             -0.15182918    -0.15254789   
    109500   0.028406063   -0.18612737     0             -0.16270171    -0.077093256  
    110000   0.049480834   -0.18875167     0             -0.14794626     0.061894287  
    110500   0.062571688   -0.18440983     0             -0.13280877     0.13511623   
    111000   0.11076075    -0.18162147     0             -0.090280288    0.036320313  
    111500   0.062019939   -0.18032121     0             -0.12917516     0.19970123   
    112000   0.052635237   -0.1837032      0             -0.14029645     0.037767324  
    112500   0.078401942   -0.18153821     0             -0.1168824     -0.1045671    
    113000   0.044429771   -0.18810732     0             -0.15146738     0.16004211   
    113500   0.034533594   -0.18172177     0             -0.15324292     0.09801401   
    114000   0.040970168   -0.19222562     0             -0.15843871    -0.06207823   
    114500   0.070045184   -0.19552477     0             -0.13776053     0.18235975   
    115000   0.1155936     -0.18779603     0             -0.092469332    0.2025401    
    115500   0.11200406    -0.18088999     0             -0.088523483    0.16063398   
    116000   0.10399122    -0.17977019     0             -0.094011639   -0.039830543  
    116500   0.074950272   -0.18673603     0             -0.12492671     0.0065935439 
    117000   0.050543201   -0.188729       0             -0.14704749     0.022598869  
    117500   0.067026583   -0.1876575      0             -0.13238262     0.0031564835 
    118000   0.075914949   -0.18022157     0             -0.11761671     0.20518359   
    118500   0.053684226   -0.19241989     0             -0.14814806    -0.084864605  
    119000   0.04605757    -0.19159714     0             -0.1536148     -0.10170567   
    119500   0.035506913   -0.19015784     0             -0.16087631     0.035396397  
    120000   0.080746494   -0.19297326     0             -0.12638397    -0.15043115   
    120500   0.037542631   -0.19214941     0             -0.16118909    -0.043930173  
    121000   0.068584825   -0.18845968     0             -0.13189976     0.11183601   
    121500   0.056353455   -0.18697994     0             -0.14050687    -0.011553518  
    122000   0.034022979   -0.19262091     0             -0.16456315    -0.18293997   
    122500   0.038861018   -0.19362108     0             -0.16157353    -0.15491155   
    123000   0.045355481   -0.19457142     0             -0.15716806     0.0039804327 
    123500   0.0660471     -0.18976394     0             -0.13529681    -0.027757218  
    124000   0.077420425   -0.19195479     0             -0.12810841     0.10915995   
    124500   0.063967369   -0.1889983      0             -0.13624626    -0.098746729  
    125000   0.04838448    -0.19250334     0             -0.15260206     0.050538307  
    125500   0.045763109   -0.19515572     0             -0.15741621    -0.01902442   
    126000   0.027517734   -0.19775845     0             -0.17506537    -0.093907614  
    126500   0.031859533   -0.20046535     0             -0.17419171    -0.027364481  
    127000   0.041894727   -0.19927721     0             -0.16472784    -0.0045897091 
    127500   0.04392873    -0.19929651     0             -0.16306976    -0.071763244  
    128000   0.054351528   -0.19714102     0             -0.15231889     0.035786999  
    128500   0.050198621   -0.19284227     0             -0.15144493    -0.090158927  
    129000   0.07432774    -0.19333474     0             -0.1320388      0.098081546  
    129500   0.050025303   -0.19398714     0             -0.15273273     0.10924418   
    130000   0.050470026   -0.19833131     0             -0.15671014     0.040419919  
    130500   0.06361002    -0.19797515     0             -0.14551781    -0.095788357  
    131000   0.050463429   -0.19487546     0             -0.15325973     0.13892848   
    131500   0.038049755   -0.19794625     0             -0.16656772     0.13708122   
    132000   0.06107109    -0.19969953     0             -0.14933597     0.0076690252 
    132500   0.038900074   -0.20033503     0             -0.16825526     0.11500544   
    133000   0.081613269   -0.1901397      0             -0.1228356     -0.031210933  
    133500   0.069730591   -0.1878408      0             -0.130336       0.087282855  
    134000   0.061487685   -0.19676374     0             -0.14605663     0.12775508   
    134500   0.059869798   -0.19155829     0             -0.1421854      0.10317654   
    135000   0.068948772   -0.19546212     0             -0.13860206    -0.028369604  
    135500   0.059020489   -0.19494262     0             -0.14627013     0.037032717  
    136000   0.08306869    -0.19302224     0             -0.1245179     -0.0047771843 
    136500   0.056410975   -0.19587525     0             -0.14935475     0.14069501   
    137000   0.058575339   -0.19713712     0             -0.14883173     0.031077299  
    137500   0.093395272   -0.19307225     0             -0.11605187     0.93361987   
    138000   0.095476067   -0.19071697     0             -0.11198062     0.16353081   
    138500   0.056495445   -0.19085568     0             -0.14426552    -0.14880612   
    139000   0.062731235   -0.19395953     0             -0.14222689     0.17663318   
    139500   0.056164407   -0.19587152     0             -0.14955436     0.11375043   
    140000   0.042153748   -0.19714057     0             -0.16237759     0.30389942   
    140500   0.049150913   -0.19775995     0             -0.15722662     0.02439045   
    141000   0.068264316   -0.19648681     0             -0.1401912      0.086165589  
    141500   0.075143517   -0.19137396     0             -0.12940528    -0.05849163   
    142000   0.067916179   -0.1959305      0             -0.13992199     0.14946143   
    142500   0.041420898   -0.19516582     0             -0.16100721     0.0053226821 
    143000   0.085801553   -0.19624379     0             -0.12548573     0.013111858  
    143500   0.1033212     -0.19506978     0             -0.10986378    -0.16968256   
    144000   0.064226472   -0.19351599     0             -0.14055028     0.05914218   
    144500   0.042662919   -0.19551998     0             -0.16033711    -0.1230951    
    145000   0.040990762   -0.19932713     0             -0.16552323    -0.072920282  
    145500   0.055316816   -0.19071002     0             -0.14509184    -0.063753892  
    146000   0.053990886   -0.19509198     0             -0.15056726     0.28819448   
    146500   0.047972922   -0.20007458     0             -0.1605127     -0.055879837  
    147000   0.040889097   -0.20488322     0             -0.17116316    -0.067958061  
    147500   0.033902545   -0.20951318     0             -0.18155474    -0.19772876   
    148000   0.10120409    -0.20268782     0             -0.11922773    -0.051814384  
    148500   0.099889503   -0.19841031     0             -0.11603433     0.030672392  
    149000   0.079822911   -0.19840707     0             -0.13257942     0.12461745   
    149500   0.064137391   -0.19446253     0             -0.14157028    -0.17446379   
    150000   0.082406197   -0.19981768     0             -0.13185967     0.15205832   
    150500   0.1382097     -0.19261904     0             -0.078641504    0.04986083   
    151000   0.092429925   -0.18818102     0             -0.11195674     0.038388154  
    151500   0.095477855   -0.19108141     0             -0.11234358     0.0015270322 
    152000   0.082694838   -0.19365024     0             -0.1254542     -0.43255873   
    152500   0.072646438   -0.19243438     0             -0.13252497     0.17788544   
    153000   0.088676923   -0.19683115     0             -0.12370186    -0.11517355   
    153500   0.1101074     -0.19136279     0             -0.10056041     0.28193836   
    154000   0.074711011   -0.19503376     0             -0.13342175    -0.078800287  
    154500   0.056645606   -0.19947944     0             -0.15276545     0.18377042   
    155000   0.069035689   -0.20042391     0             -0.14349218    -0.047957823  
    155500   0.04786842    -0.19783018     0             -0.15835448     0.049698442  
    156000   0.056146091   -0.20147008     0             -0.15516803    -0.39877073   
    156500   0.044371662   -0.20358669     0             -0.16699467     0.21549319   
    157000   0.0730732     -0.20041881     0             -0.14015745     0.069570457  
    157500   0.077094005   -0.20172321     0             -0.13814602     0.12244399   
    158000   0.071718821   -0.1995102      0             -0.14036577    -0.029672099  
    158500   0.061484393   -0.20464514     0             -0.15394074     0.16127364   
    159000   0.061862875   -0.20456513     0             -0.15354861     0.15041303   
    159500   0.054906197   -0.20695721     0             -0.16167766     0.010439675  
    160000   0.090534368   -0.19744705     0             -0.12278598     0.082996921  
    160500   0.064231244   -0.20281938     0             -0.14984973    -0.055737241  
    161000   0.047696467   -0.20581831     0             -0.16648442     0.1756328    
    161500   0.089303823   -0.20344389     0             -0.12979761    -0.12341053   
    162000   0.077285313   -0.19857677     0             -0.13484181     0.040851794  
    162500   0.068169271   -0.19794295     0             -0.14172572     0.064717391  
    163000   0.089831221   -0.20332015     0             -0.12923894    -0.050683989  
    163500   0.090064331   -0.19625962     0             -0.12198618     0.21296875   
    164000   0.057425072   -0.19574515     0             -0.14838836    -0.095530525  
    164500   0.064703218   -0.19641291     0             -0.14305404     0.12383759   
    165000   0.089108352   -0.19443951     0             -0.12095443    -0.2011793    
    165500   0.083207157   -0.19814471     0             -0.12952618    -0.22465848   
    166000   0.1042824     -0.19132288     0             -0.1053242      0.0046696223 
    166500   0.081690443   -0.19274399     0             -0.12537625    -0.0098274062 
    167000   0.13980597    -0.19108155     0             -0.075787607   -0.024243539  
    167500   0.077830939   -0.19496918     0             -0.13078426     0.12062182   
    168000   0.053514161   -0.19986433     0             -0.15573275     0.077900349  
    168500   0.057246615   -0.19537916     0             -0.14816953    -0.086662954  
    169000   0.078904314   -0.19328905     0             -0.12821894    -0.3429687    
    169500   0.061365787   -0.19232682     0             -0.14172023     0.088968884  
    170000   0.066837534   -0.19769888     0             -0.1425799     -0.023542694  
    170500   0.070173624   -0.19652664     0             -0.13865648     0.12361902   
    171000   0.085717154   -0.19519062     0             -0.12450216    -0.037705967  
    171500   0.096945232   -0.19632588     0             -0.11637796    -0.12589401   
    172000   0.12706105    -0.18765748     0             -0.08287391     0.060213789  
    172500   0.10262124    -0.19512344     0             -0.11049467    -0.048923727  
    173000   0.12939656    -0.19918896     0             -0.092479368    0.050242031  
    173500   0.10509271    -0.19712234     0             -0.11045542     0.33073485   
    174000   0.085023016   -0.19206873     0             -0.12195271    -0.11776862   
    174500   0.097979033   -0.18966518     0             -0.10886471    -0.085429487  
    175000   0.079735408   -0.19349208     0             -0.12773659     0.057518635  
    175500   0.085601898   -0.18743072     0             -0.11683731     0.0073231212 
    176000   0.084081532   -0.19058269     0             -0.12124308    -0.020685398  
    176500   0.064742061   -0.19000504     0             -0.13661414    -0.018072296  
    177000   0.057950244   -0.19547072     0             -0.14768083    -0.093776404  
    177500   0.040848251   -0.20069577     0             -0.1670094     -0.025333714  
    178000   0.050700968   -0.20508406     0             -0.16327244     0.1905694    
    178500   0.065312732   -0.2024249      0             -0.14856338     0.04088439   
    179000   0.041760427   -0.20040551     0             -0.16596689     0.077535006  
    179500   0.051905125   -0.20485837     0             -0.16205371     0.27049393   
    180000   0.065093279   -0.20825129     0             -0.15457074    -0.021525586  
    180500   0.067808331   -0.19536819     0             -0.13944862     0.28428519   
    181000   0.069100384   -0.19562303     0             -0.13863794    -0.26272945   
    181500   0.063034416   -0.19556142     0             -0.14357876    -0.098696962  
    182000   0.070216908   -0.19821101     0             -0.14030515     0.014994348  
    182500   0.05340864    -0.20028937     0             -0.15624481    -0.13061122   
    183000   0.087710337   -0.19837777     0             -0.1260456      0.12116829   
    183500   0.086891826   -0.19502588     0             -0.1233687     -0.12324196   
    184000   0.07419239    -0.20007794     0             -0.13889363     0.14965215   
    184500   0.071266372   -0.20001225     0             -0.14124094    -0.22647837   
    185000   0.058673631   -0.20674146     0             -0.15835502    -0.031433218  
    185500   0.088144734   -0.19135071     0             -0.1186603      0.075877915  
    186000   0.0657913     -0.19667236     0             -0.14241618    -0.029588964  
    186500   0.047296527   -0.19947339     0             -0.16046931    -0.22927818   
    187000   0.093661903   -0.19805298     0             -0.12081272     0.3058558    
    187500   0.12103862    -0.18958674     0             -0.089769695   -0.1558891    
    188000   0.092230044   -0.192267       0             -0.11620755     0.25268345   
    188500   0.084376616   -0.19259116     0             -0.12300821     0.029653374  
    189000   0.074907014   -0.19211937     0             -0.13034572    -0.29746148   
    189500   0.12075148    -0.19010482     0             -0.090524569    0.22564228   
    190000   0.069987585   -0.19252982     0             -0.13481309    -0.24723719   
    190500   0.09343261    -0.19479368     0             -0.11774251     0.14707439   
    191000   0.050478838   -0.19973617     0             -0.15810774     0.089055823  
    191500   0.078762262   -0.19917744     0             -0.13422449     0.26659405   
    192000   0.061680662   -0.2078766      0             -0.15701034     0.038886408  
    192500   0.11286164    -0.19071224     0             -0.097638516    0.28044843   
    193000   0.090671935   -0.19122848     0             -0.11645396     0.14647628   
    193500   0.10593976    -0.19331852     0             -0.10595307    -0.14935882   
    194000   0.07808121    -0.19124633     0             -0.12685502     0.16163868   
    194500   0.1172224     -0.19833927     0             -0.10166935     0.20093882   
    195000   0.10094099    -0.18929379     0             -0.10605068    -0.21756192   
    195500   0.063710899   -0.19792229     0             -0.14538176    -0.049928845  
    196000   0.064898962   -0.19509036     0             -0.14157007     0.1252971    
    196500   0.10064684    -0.19284576     0             -0.10984522     0.034532367  
    197000   0.11536562    -0.18382704     0             -0.088688358    0.064584776  
    197500   0.15572766    -0.18451788     0             -0.056093787    0.33122281   
    198000   0.10129974    -0.18786893     0             -0.10432997    -0.29290578   
    198500   0.090383395   -0.18916344     0             -0.11462687    -0.0051965938 
    199000   0.10941618    -0.18280889     0             -0.092576536    0.22517044   
    199500   0.11042716    -0.18227872     0             -0.091212639   -0.052680088  
    200000   0.068958076   -0.18272344     0             -0.12585571    -0.45559383   
    200500   0.085752444   -0.18911735     0             -0.11839979     0.13595333   
    201000   0.093616271   -0.19073105     0             -0.11352842     0.34703176   
    201500   0.1245015     -0.1810931      0             -0.078420311    0.10947216   
    202000   0.088266469   -0.18623202     0             -0.11344122     0.086196816  
    202500   0.087543672   -0.18933984     0             -0.1171451     -0.14496626   
    203000   0.075256574   -0.18523221     0             -0.12317029    -0.11490489   
    203500   0.084906465   -0.1892986      0             -0.1192787      0.035157836  
    204000   0.10389874    -0.18618751     0             -0.10050522    -0.069472583  
    204500   0.10414401    -0.18257368     0             -0.096689122    0.0054681749 
    205000   0.11254924    -0.18546682     0             -0.092650718    0.11074693   
    205500   0.11730475    -0.18301629     0             -0.086278463   -0.20345419   
    206000   0.10432001    -0.17907123     0             -0.093041543   -0.01561214   
    206500   0.082445213   -0.18047223     0             -0.11248205    -0.0065163853 
    207000   0.084580853   -0.18348368     0             -0.11373229     0.0085996588 
    207500   0.1275102     -0.18049429     0             -0.075340321    0.01864902   
    208000   0.075111466   -0.17404128     0             -0.11209903     0.16854517   
    208500   0.088736475   -0.18374517     0             -0.11056677    -0.24903066   
    209000   0.068918221   -0.18446172     0             -0.12762686     0.18236875   
    209500   0.05851645    -0.18884425     0             -0.14058743    -0.50907184   
    210000   0.094100063   -0.18178393     0             -0.10418233    -0.013462928  
    210500   0.10291282    -0.17905144     0             -0.094182219   -0.087882827  
    211000   0.13087019    -0.17585933     0             -0.067934467    0.09398186   
    211500   0.079232998   -0.17962956     0             -0.1142884     -0.056844335  
    212000   0.11695443    -0.1728753      0             -0.07642637     0.0044005779 
    212500   0.10311056    -0.17668795     0             -0.091655655    0.022691067  
    213000   0.09742303    -0.18080666     0             -0.10046471     0.012103457  
    213500   0.06415296    -0.18357694     0             -0.13067185     0.069188199  
    214000   0.077811926   -0.18328011     0             -0.11911087    -0.089644186  
    214500   0.086450496   -0.18886142     0             -0.1175682     -0.0073965009 
    215000   0.058220824   -0.18370256     0             -0.13568953     0.17235106   
    215500   0.094250729   -0.17796474     0             -0.10023889    -0.11995349   
    216000   0.17447349    -0.17217192     0             -0.028288689    0.043728243  
    216500   0.12829843    -0.17597351     0             -0.070169513   -0.26263525   
    217000   0.072870676   -0.18247156     0             -0.12237723     0.23372359   
    217500   0.12756305    -0.1804928      0             -0.075295248    0.11775947   
    218000   0.1018795     -0.17861132     0             -0.094594243   -0.18892515   
    218500   0.11080455    -0.1773103      0             -0.085932991   -0.34277542   
    219000   0.10938068    -0.17803828     0             -0.0878352      0.32130205   
    219500   0.12087515    -0.17900644     0             -0.079324203    0.13285624   
    220000   0.13298454    -0.18240033     0             -0.072731822   -0.076835394  
    220500   0.10455997    -0.18529598     0             -0.099068401   -0.1818304    
    221000   0.10202084    -0.18921992     0             -0.10508629     0.099043458  
    221500   0.086358366   -0.18607815     0             -0.11486091    -0.24690986   
    222000   0.082024884   -0.18951163     0             -0.12186808     0.052851998  
    222500   0.099084496   -0.19269399     0             -0.11098187    -0.03880657   
    223000   0.078112439   -0.18802518     0             -0.12360811     0.11604206   
    223500   0.12730346    -0.19493675     0             -0.089953277    0.21361396   
    224000   0.12115977    -0.19056514     0             -0.090648185   -0.60501023   
    224500   0.095950593   -0.18851169     0             -0.10938401    -0.084237727  
    225000   0.077454282   -0.19090871     0             -0.1270344      0.0027445198 
    225500   0.075495217   -0.1963175      0             -0.13405878    -0.021705786  
    226000   0.092134071   -0.19101398     0             -0.11503368     0.081388754  
    226500   0.097630055   -0.18960857     0             -0.10909589    -0.088624685  
    227000   0.091615625   -0.18705704     0             -0.11150429    -0.04319777   
    227500   0.052818144   -0.18866889     0             -0.14511129    -0.1254611    
    228000   0.047501589   -0.19517239     0             -0.1559992      0.13818685   
    228500   0.065857836   -0.19190807     0             -0.13759702    -0.17927619   
    229000   0.069549447   -0.18460513     0             -0.12724971    -0.093052328  
    229500   0.072842363   -0.18818169     0             -0.1281107      0.044274564  
    230000   0.08612319    -0.18466038     0             -0.11363708     0.011185847  
    230500   0.080051411   -0.18540713     0             -0.11939104    -0.4145314    
    231000   0.080745181   -0.18752878     0             -0.12094056    -0.32702381   
    231500   0.12484503    -0.18225395     0             -0.079297865    0.059765741  
    232000   0.11086031    -0.18423619     0             -0.092812901    0.12623816   
    232500   0.072499137   -0.18760503     0             -0.12781709     0.23111611   
    233000   0.1309569     -0.18629718     0             -0.078300819    0.15695168   
    233500   0.11126441    -0.18823386     0             -0.09647733     0.19767417   
    234000   0.10856255    -0.19407973     0             -0.10455134     0.25669107   
    234500   0.083068664   -0.18912007     0             -0.12061575     0.051195839  
    235000   0.074525339   -0.19817806     0             -0.13671917     0.25189296   
    235500   0.11259782    -0.19446032     0             -0.10160416    -0.029707978  
    236000   0.10575278    -0.19366875     0             -0.1064575      0.13415298   
    236500   0.083847804   -0.18992887     0             -0.12078202    -0.014661999  
    237000   0.076159458   -0.19464748     0             -0.13184098     0.10251444   
    237500   0.097739148   -0.19575823     0             -0.11515559     0.11227381   
    238000   0.09393951    -0.19205771     0             -0.11458851    -0.046417444  
    238500   0.077940395   -0.19713422     0             -0.13285903    -0.03401803   
    239000   0.12004567    -0.19565033     0             -0.096652136    0.24481068   
    239500   0.098288546   -0.1970815      0             -0.11602578     0.61842128   
    240000   0.098957053   -0.19486699     0             -0.11325998     0.1304918    
    240500   0.12715171    -0.19373717     0             -0.088878833   -0.19938162   
    241000   0.13936601    -0.19291263     0             -0.077981517   -0.35834543   
    241500   0.10745913    -0.18577293     0             -0.097154489    0.07503057   
    242000   0.13703955    -0.18655582     0             -0.073543271    0.22212866   
    242500   0.11280108    -0.18565075     0             -0.092626965   -0.0046489203 
    243000   0.11071017    -0.18905227     0             -0.097752797   -0.035743691  
    243500   0.11960951    -0.19199149     0             -0.093352995   -0.24064348   
    244000   0.0947756     -0.1891363      0             -0.11097761    -0.12080191   
    244500   0.11756773    -0.18338573     0             -0.086431023   -0.44683292   
    245000   0.11112905    -0.19490233     0             -0.10325742    -0.022935562  
    245500   0.0793806     -0.19193425     0             -0.12647136     0.016419833  
    246000   0.070454212   -0.19243596     0             -0.13433442     0.21232358   
    246500   0.076910133   -0.19317516     0             -0.1297496     -0.15819745   
    247000   0.10921794    -0.18332076     0             -0.093251893   -0.051767766  
    247500   0.08986716    -0.18631187     0             -0.11220102     0.0075964918 
    248000   0.098479365   -0.18802043     0             -0.10680735     0.071498692  
    248500   0.081865965   -0.18102241     0             -0.11350992     0.01163434   
    249000   0.088048777   -0.18438773     0             -0.11177646    -0.33384306   
    249500   0.084305742   -0.17951402     0             -0.10998951     0.12518691   
    250000   0.10179176    -0.17168852     0             -0.087743798   -0.31616239   
    250500   0.077610432   -0.1793182      0             -0.11531513     0.17552826   
    251000   0.12083999    -0.18723287     0             -0.087579621   -0.023547366  
    251500   0.11578027    -0.18573582     0             -0.090255186   -0.044396376  
    252000   0.1062539     -0.18086478     0             -0.093240271    0.077237148  
    252500   0.076388213   -0.18949768     0             -0.12650254     0.31370198   
    253000   0.073577224   -0.19669858     0             -0.13602157     0.13350278   
    253500   0.084722211   -0.19167183     0             -0.12180388     0.058691032  
    254000   0.092819539   -0.18718434     0             -0.11063875     0.04576825   
    254500   0.082637537   -0.19557866     0             -0.12742988     0.13486772   
    255000   0.082747086   -0.19065197     0             -0.12241284     0.22166945   
    255500   0.059801469   -0.19324398     0             -0.14392744    -0.35232388   
    256000   0.049738567   -0.19582769     0             -0.15480974    -0.030583159  
    256500   0.05385832    -0.20343472     0             -0.15901932    -0.012627797  
    257000   0.076879059   -0.19816477     0             -0.13476484     0.012427588  
    257500   0.11520342    -0.19260683     0             -0.097601905   -0.075611342  
    258000   0.088995943   -0.1961093      0             -0.12271693     0.2391444    
    258500   0.086012989   -0.19438759     0             -0.12345517    -0.33624976   
    259000   0.12868433    -0.19390403     0             -0.087781788    0.053695658  
    259500   0.1269937     -0.18716617     0             -0.082438144    0.080921274  
    260000   0.12721181    -0.18569489     0             -0.080786993    0.20646263   
    260500   0.093170952   -0.18469881     0             -0.10786342    -0.23804975   
    261000   0.095312488   -0.18392827     0             -0.10532682     0.25888146   
    261500   0.089645105   -0.18037796     0             -0.10645024    -0.026989095  
    262000   0.1021796     -0.17949178     0             -0.095227221    0.59532172   
    262500   0.077478334   -0.18141063     0             -0.11751649     0.2158857    
    263000   0.09654633    -0.17624885     0             -0.096629888   -0.38193014   
    263500   0.11854261    -0.17727404     0             -0.079515386   -0.28708709   
    264000   0.13454729    -0.17876491     0             -0.067807656    0.033080709  
    264500   0.1082615     -0.18264374     0             -0.093363619    0.21075873   
    265000   0.08702854    -0.18449025     0             -0.11272033    -0.11060462   
    265500   0.14141334    -0.17467183     0             -0.058052341    0.2442934    
    266000   0.12349953    -0.17005041     0             -0.068203919   -0.014765879  
    266500   0.1045624     -0.17240346     0             -0.086173879   -0.21664674   
    267000   0.089287286   -0.18125814     0             -0.1076255      0.10338543   
    267500   0.099218306   -0.17688183     0             -0.095059368   -0.047990943  
    268000   0.10362396    -0.17614812     0             -0.090692442    0.0049583961 
    268500   0.085063691   -0.17983252     0             -0.10968296    -0.04938822   
    269000   0.069972915   -0.17710116     0             -0.11939653    -0.13056635   
    269500   0.047206897   -0.18549287     0             -0.14656271    -0.1467568    
    270000   0.072202348   -0.18654037     0             -0.12699718    -0.046086315  
    270500   0.087723294   -0.18683291     0             -0.11449005    -0.097237272  
    271000   0.055385042   -0.1881253      0             -0.14245085     0.0030314413 
    271500   0.057240014   -0.19114545     0             -0.14394127     0.077801002  
    272000   0.084720724   -0.18641679     0             -0.11655006    -0.59050733   
    272500   0.10072719    -0.18236435     0             -0.099297553   -0.10072037   
    273000   0.092404506   -0.17588795     0             -0.099684629    0.33972402   
    273500   0.070637947   -0.17975858     0             -0.12150551     0.24101351   
    274000   0.11066507    -0.17751242     0             -0.086250145    0.18413403   
    274500   0.11678241    -0.17426706     0             -0.077959987   -0.34040182   
    275000   0.11963562    -0.17955422     0             -0.080894189    0.050521775  
    275500   0.11084594    -0.18612127     0             -0.094709826    0.29139037   
    276000   0.12785223    -0.17792419     0             -0.072488159    0.24062387   
    276500   0.13569665    -0.17280836     0             -0.060903258   -0.12602858   
    277000   0.1230243     -0.17451902     0             -0.073064443   -0.01220057   
    277500   0.10459545    -0.18640247     0             -0.10014563     0.030411388  
    278000   0.07136832    -0.18126333     0             -0.12240794     0.057473736  
    278500   0.11808427    -0.18205043     0             -0.084669746    0.03826589   
    279000   0.10445833    -0.17989139     0             -0.093747626   -0.053045061  
    279500   0.14259284    -0.17260983     0             -0.055017642   -0.026935966  
    280000   0.14956763    -0.17056314     0             -0.047219045   -0.4300083    
    280500   0.12093144    -0.17864744     0             -0.07891879    -0.019279895  
    281000   0.09068441    -0.18047014     0             -0.10568533    -0.32933022   
    281500   0.079816101   -0.18504265     0             -0.11922062    -0.043612557  
    282000   0.079989519   -0.18461307     0             -0.11864803    -0.039353665  
    282500   0.080120604   -0.18629036     0             -0.12021722     0.062837683  
    283000   0.082758443   -0.18534613     0             -0.11709764     0.35095559   
    283500   0.094184862   -0.18416834     0             -0.10649681     0.076071061  
    284000   0.08470542    -0.18635648     0             -0.11650237    -0.079648826  
    284500   0.09079596    -0.19375435     0             -0.11887755    -0.14852529   
    285000   0.096966028   -0.19426331     0             -0.11429823     0.19563343   
    285500   0.090673852   -0.19719098     0             -0.12241488    -0.39675531   
    286000   0.12255237    -0.19872693     0             -0.097661539    0.1675897    
    286500   0.12048664    -0.19618223     0             -0.096820385    0.14107545   
    287000   0.14769917    -0.18539835     0             -0.06359512     0.17301711   
    287500   0.12247804    -0.18550574     0             -0.084501644   -0.10802883   
    288000   0.12433444    -0.17700964     0             -0.074474634    0.072912077  
    288500   0.11421014    -0.18120659     0             -0.087020796    0.041243444  
    289000   0.095375194   -0.18526324     0             -0.10661008     0.004813529  
    289500   0.087849949   -0.18628636     0             -0.11383905    -0.085039389  
    290000   0.066907577   -0.19199964     0             -0.1368229      0.15847963   
    290500   0.069806218   -0.1941603      0             -0.13659313    -0.24438501   
    291000   0.066721947   -0.19259104     0             -0.13756738    -0.038793186  
    291500   0.079088931   -0.19446203     0             -0.12923968     0.068192508  
    292000   0.10993632    -0.18764487     0             -0.096983569   -0.5007451    
    292500   0.11515982    -0.18675113     0             -0.091782157    0.045530744  
    293000   0.10369989    -0.1834399      0             -0.097921607    0.040411927  
    293500   0.085403946   -0.18547556     0             -0.1150454      0.21632315   
    294000   0.086259658   -0.18367918     0             -0.11254333    -0.051577645  
    294500   0.1306805     -0.17629669     0             -0.068528257    0.032397561  
    295000   0.12632436    -0.17415111     0             -0.069975073   -0.16007476   
    295500   0.12159501    -0.17799154     0             -0.07771566    -0.055406263  
    296000   0.12711696    -0.18093726     0             -0.076107581   -0.18933508   
    296500   0.12912369    -0.18152248     0             -0.075037915    0.23652966   
    297000   0.087797655   -0.18213852     0             -0.10973433    -0.33564344   
    297500   0.11722111    -0.17994042     0             -0.083271566    0.27970566   
    298000   0.12480136    -0.17895844     0             -0.076038373   -0.10663552   
    298500   0.17419126    -0.17759805     0             -0.033947561   -0.20593096   
    299000   0.11024804    -0.18050273     0             -0.089584367    0.063158239  
    299500   0.089156517   -0.1864853      0             -0.1129605      0.014017772  
    300000   0.077644303   -0.19110483     0             -0.12707382    -0.035202722  
    300500   0.079899288   -0.19369644     0             -0.12780581     0.096061624  
    301000   0.078348701   -0.19511361     0             -0.13050171     0.27037495   
    301500   0.091738125   -0.19149918     0             -0.1158454      0.030153682  
    302000   0.084887755   -0.18807357     0             -0.1180691     -0.1426128    
    302500   0.078526341   -0.19363044     0             -0.12887204     0.10094471   
    303000   0.093877238   -0.18819243     0             -0.11077459    -0.023356667  
    303500   0.07672376    -0.19236264     0             -0.12909078    -0.073977241  
    304000   0.086535703   -0.19193742     0             -0.12057394    -0.073809944  
    304500   0.1038769     -0.19386916     0             -0.10820488     0.24976959   
    305000   0.095738021   -0.19746815     0             -0.11851578    -0.31706263   
    305500   0.14975913    -0.18752015     0             -0.064018137   -0.12031679   
    306000   0.12642965    -0.18277876     0             -0.07851589     0.10764715   
    306500   0.10007954    -0.18721472     0             -0.10468202    -0.22926021   
    307000   0.10485665    -0.18235074     0             -0.095878497   -0.12293591   
    307500   0.12768372    -0.19027138     0             -0.08497432    -0.12202003   
    308000   0.098312775   -0.19101179     0             -0.10993609     0.12589573   
    308500   0.098149507   -0.18734917     0             -0.10640811     0.032979249  
    309000   0.10059515    -0.18628904     0             -0.10333113    -0.23794355   
    309500   0.10574672    -0.18880807     0             -0.10160182     0.089818405  
    310000   0.13760873    -0.18539923     0             -0.071917292    0.22004054   
    310500   0.092515226   -0.19622586     0             -0.11993123    -0.18675397   
    311000   0.10646561    -0.1877087      0             -0.099909596    0.021941918  
    311500   0.11062659    -0.18432867     0             -0.093098121    0.33423273   
    312000   0.10043823    -0.19021124     0             -0.10738273     0.19188393   
    312500   0.10766927    -0.1918037      0             -0.10301197     0.22859688   
    313000   0.11722556    -0.18247405     0             -0.085801529    0.27796269   
    313500   0.094812811   -0.18579788     0             -0.1076085     -0.26172318   
    314000   0.080605487   -0.18483195     0             -0.11835894     0.13462842   
    314500   0.084151844   -0.18770281     0             -0.11830523    -0.030346905  
    315000   0.11182729    -0.18555791     0             -0.09333718     0.32863356   
    315500   0.12184904    -0.18371056     0             -0.083225184    0.36397779   
    316000   0.086354079   -0.19312041     0             -0.1219067     -0.020607842  
    316500   0.10730455    -0.19059213     0             -0.10210117     0.072641259  
    317000   0.11138443    -0.18913998     0             -0.097284462    0.16305137   
    317500   0.089570298   -0.18477577     0             -0.11090974    -0.13512918   
    318000   0.070397644   -0.18875789     0             -0.13070299     0.14510395   
    318500   0.070274026   -0.1903279      0             -0.13237494     0.028186868  
    319000   0.10809911    -0.18664759     0             -0.097501379   -0.40806437   
    319500   0.072046206   -0.19524451     0             -0.13583009    -0.096845951  
    320000   0.11682964    -0.18399623     0             -0.087650211    0.62647483   
    320500   0.12781645    -0.1787265      0             -0.073319979    0.47517458   
    321000   0.09632391    -0.18289441     0             -0.10345887    -0.031965782  
    321500   0.13612977    -0.17733092     0             -0.065068643    0.24228718   
    322000   0.12676813    -0.17607393     0             -0.071531925   -0.19138534   
    322500   0.15477911    -0.17847852     0             -0.050836662    0.0033072114 
    323000   0.13305081    -0.18179552     0             -0.072072371   -0.21882833   
    323500   0.13007109    -0.17671708     0             -0.069451218    0.02665646   
    324000   0.10987722    -0.17921215     0             -0.088599595    0.039219961  
    324500   0.12077383    -0.17856432     0             -0.078965635   -0.1295444    
    325000   0.091826699   -0.18174411     0             -0.10601729    -0.12989493   
    325500   0.089763793   -0.18767104     0             -0.11364544     0.20585329   
    326000   0.07872533    -0.18756105     0             -0.12263855     0.17631361   
    326500   0.12507387    -0.19702708     0             -0.093882277   -0.059408948  
    327000   0.097028728   -0.19011652     0             -0.11009974    -0.31825841   
    327500   0.14298405    -0.18396724     0             -0.066052433    0.082041784  
    328000   0.11929644    -0.18337566     0             -0.084995335    0.038254222  
    328500   0.10910545    -0.18932758     0             -0.099351477   -0.13823752   
    329000   0.11707074    -0.17908954     0             -0.082544694   -0.14730336   
    329500   0.096109999   -0.1840368      0             -0.10477766     0.11719912   
    330000   0.12158622    -0.18832584     0             -0.088057201    0.060453356  
    330500   0.10318733    -0.1900793      0             -0.1049837     -0.0077512623 
    331000   0.10467108    -0.19582902     0             -0.10950981     0.18324567   
    331500   0.1034167     -0.19006553     0             -0.10478077    -0.15296612   
    332000   0.077329137   -0.19585547     0             -0.13208437    -0.18471157   
    332500   0.069257677   -0.20002061     0             -0.14290581     0.073800553  
    333000   0.081498612   -0.20292205     0             -0.1357125     -0.67700128   
    333500   0.090630602   -0.1967719      0             -0.12203147     0.68622145   
    334000   0.083699352   -0.19776893     0             -0.12874449    -0.097175994  
    334500   0.093474959   -0.19760381     0             -0.12051772    -0.23986911   
    335000   0.071443988   -0.20177529     0             -0.1428575      0.12514144   
    335500   0.096840572   -0.20817174     0             -0.12831012    -0.28841198   
    336000   0.14662041    -0.19763129     0             -0.076717686    0.30375144   
    336500   0.17443763    -0.19192616     0             -0.048072491    0.44155951   
    337000   0.15500736    -0.18477698     0             -0.056946901   -0.045573067  
    337500   0.098413688   -0.19036303     0             -0.10920411     0.31201528   
    338000   0.15843703    -0.18020368     0             -0.049545249    0.2155293    
    338500   0.17220874    -0.179461       0             -0.037445443   -0.57069317   
    339000   0.10679743    -0.18054124     0             -0.092468491    0.14122528   
    339500   0.14634477    -0.18006279     0             -0.059376493    0.19806979   
    340000   0.095223823   -0.18487503     0             -0.1063467      0.0086701695 
    340500   0.1142993     -0.18534709     0             -0.09108776     0.17263432   
    341000   0.12060877    -0.1800478      0             -0.080585232    0.24302267   
    341500   0.11451872    -0.1872864      0             -0.092846127   -0.12043      
    342000   0.15730604    -0.18369164     0             -0.0539659     -0.10761967   
    342500   0.13299909    -0.1828589      0             -0.073178394    0.0059955878 
    343000   0.11962442    -0.18398732     0             -0.085336523    0.14230736   
    343500   0.1095518     -0.19207299     0             -0.10172879    -0.074665225  
    344000   0.12271024    -0.18620539     0             -0.085009804   -0.59518808   
    344500   0.12970456    -0.18594663     0             -0.078983031   -0.10400656   
    345000   0.15279277    -0.18099649     0             -0.054992714   -0.18734562   
    345500   0.22408809    -0.17256722     0              0.012231741    0.12964192   
    346000   0.13891842    -0.17125191     0             -0.056689914   -0.16187515   
    346500   0.12430493    -0.17142538     0             -0.068914695   -0.035739406  
    347000   0.11558981    -0.17147996     0             -0.076156388    0.0998388    
    347500   0.19643422    -0.16944035     0             -0.0074467278   0.23103455   
    348000   0.12795104    -0.17755726     0             -0.072039745    0.0848934    
    348500   0.10496078    -0.17522996     0             -0.08867184     0.18443939   
    349000   0.12865668    -0.17300682     0             -0.066907381   -0.18124042   
    349500   0.10128564    -0.17498525     0             -0.09145791    -0.1462554    
    350000   0.12459569    -0.17184996     0             -0.069099496   -0.06064268   
    350500   0.13237903    -0.17375902     0             -0.064589863   -0.1683116    
    351000   0.12531981    -0.18006899     0             -0.076721366    0.20300672   
    351500   0.082876917   -0.18016434     0             -0.11181814    -0.044943116  
    352000   0.12352126    -0.18272423     0             -0.08085983    -0.060443452  
    352500   0.19659385    -0.17826477     0             -0.016139514   -0.067861454  
    353000   0.17760418    -0.17025422     0             -0.023789198    0.18763846   
    353500   0.14857906    -0.16992416     0             -0.047395312    0.60251852   
    354000   0.11156674    -0.17399647     0             -0.081990615    0.084121348  
    354500   0.10014484    -0.17372031     0             -0.091133759    0.2679877    
    355000   0.12273549    -0.17755004     0             -0.07633364    -0.15010897   
    355500   0.12057417    -0.17800275     0             -0.078568725    0.23847944   
    356000   0.11626037    -0.17750975     0             -0.08163319     0.00470774   
    356500   0.127932      -0.18096956     0             -0.075467744   -0.3180831    
    357000   0.13616528    -0.17719675     0             -0.064905181   -0.17192045   
    357500   0.11781676    -0.17939961     0             -0.082239537   -0.12901331   
    358000   0.078335687   -0.18490097     0             -0.1202998     -0.10586113   
    358500   0.08787405    -0.18433446     0             -0.11186728     0.12353056   
    359000   0.093523088   -0.17990412     0             -0.10277834     0.020715023  
    359500   0.14036641    -0.17945794     0             -0.063701817    0.15272646   
    360000   0.091723886   -0.17867451     0             -0.10303247     0.1765498    
    360500   0.093738438   -0.1811594      0             -0.10385602     0.024005225  
    361000   0.093357485   -0.17980206     0             -0.10281285    -0.44176216   
    361500   0.089837217   -0.18165792     0             -0.10757177    -0.12880841   
    362000   0.097942147   -0.18166541     0             -0.10089536    -0.18526427   
    362500   0.086675861   -0.17704097     0             -0.10556189    -0.14056543   
    363000   0.11432487    -0.17873769     0             -0.084457286    0.29405388   
    363500   0.089326743   -0.19002783     0             -0.11636265     0.081828486  
    364000   0.10999843    -0.19060252     0             -0.099889995    0.35845154   
    364500   0.11291799    -0.19340042     0             -0.10028022     0.014167362  
    365000   0.086361246   -0.19148641     0             -0.12026679     0.15972323   
    365500   0.1116457     -0.19213996     0             -0.10006898     0.095299909  
    366000   0.11686669    -0.18476132     0             -0.088384739    0.19935889   
    366500   0.10010269    -0.19473367     0             -0.11218188     0.063738567  
    367000   0.10984035    -0.19747626     0             -0.10689411     0.0013711304 
    367500   0.079609573   -0.19834807     0             -0.13269636    -0.16559603   
    368000   0.063360595   -0.20108038     0             -0.14882873     0.29442339   
    368500   0.14221501    -0.1968308      0             -0.079550206    0.5515238    
    369000   0.097263376   -0.20111391     0             -0.12090362    -0.076955774  
    369500   0.11169242    -0.19118946     0             -0.099079948    0.18511854   
    370000   0.083004665   -0.20226001     0             -0.13380846    -0.13548449   
    370500   0.091394878   -0.19827555     0             -0.12290484     0.2976346    
    371000   0.10728941    -0.20614014     0             -0.11766167     0.005594406  
    371500   0.10757506    -0.20758371     0             -0.11886967    -0.062472414  
    372000   0.11437492    -0.20347791     0             -0.10915623     0.065228692  
    372500   0.13478428    -0.204298       0             -0.093145299   -0.41361925   
    373000   0.13885768    -0.19697083     0             -0.08245892    -0.086780126  
    373500   0.10446353    -0.20424022     0             -0.11809218    -0.096921284  
    374000   0.12323793    -0.19525441     0             -0.093623652   -0.07372227   
    374500   0.11270705    -0.19538636     0             -0.10244012     0.24170688   
    375000   0.14722933    -0.1899578      0             -0.068542035   -0.20547144   
    375500   0.10921007    -0.19120075     0             -0.10113837    -0.06717716   
    376000   0.13674113    -0.19540139     0             -0.082634936   -0.57427746   
    376500   0.11483416    -0.18302854     0             -0.088328136    0.06080577   
    377000   0.10510442    -0.19305559     0             -0.10637901     0.071400686  
    377500   0.1990497     -0.19254824     0             -0.028397711    0.10881362   
    378000   0.12686941    -0.18396131     0             -0.07933578     0.092035522  
    378500   0.15416308    -0.18324709     0             -0.056113256    0.0057965232 
    379000   0.14904345    -0.18217344     0             -0.059261622    0.10652861   
    379500   0.10990491    -0.18153374     0             -0.090898347    0.16436456   
    380000   0.11114862    -0.18368886     0             -0.092027809    0.078125485  
    380500   0.10949846    -0.18138804     0             -0.09108783    -0.042710837  
    381000   0.14284334    -0.17727434     0             -0.059475578   -0.029864232  
    381500   0.13314816    -0.17392851     0             -0.064125085   -0.25204099   
    382000   0.11527309    -0.17208447     0             -0.077022095    0.36328611   
    382500   0.10650291    -0.1731073      0             -0.085277426    0.19402336   
    383000   0.089351191   -0.17839262     0             -0.10470728    -0.45939094   
    383500   0.13351391    -0.17914695     0             -0.069041893    0.32613779   
    384000   0.14301729    -0.18082926     0             -0.062887042   -0.471999     
[...]
   1896500   0.1586652     -0.17809852     0             -0.047251924   -0.38036206   
   1897000   0.15940229    -0.17798842     0             -0.04653396    -0.099205022  
   1897500   0.16005955    -0.18217041     0             -0.050173933    0.29152632   
   1898000   0.14792908    -0.18351988     0             -0.061527046    0.21026327   
   1898500   0.17884757    -0.18278213     0             -0.035291709   -1.1066967    
   1899000   0.17344941    -0.17755633     0             -0.034517626   -0.16199349   
   1899500   0.14139078    -0.18148869     0             -0.064887803   -0.030170338  
   1900000   0.14727622    -0.18410173     0             -0.062647301    0.39478658   
   1900500   0.1378742     -0.18331959     0             -0.069618734    0.28055496   
   1901000   0.141659      -0.17981236     0             -0.062990284   -0.26867438   
   1901500   0.1859203     -0.17289859     0             -0.019575499    0.15879183   
   1902000   0.16247962    -0.17836222     0             -0.044369986   -0.14815382   
   1902500   0.14239098    -0.17642668     0             -0.059000955   -0.45587881   
   1903000   0.13235289    -0.17963255     0             -0.070484956   -0.25586578   
   1903500   0.14376025    -0.18486153     0             -0.066306608    0.47408568   
   1904000   0.19371008    -0.18510017     0             -0.025353075   -0.15273367   
   1904500   0.13615658    -0.18398515     0             -0.071700764   -0.20042166   
   1905000   0.13073586    -0.18912856     0             -0.081314474    0.25915535   
   1905500   0.15976236    -0.18225945     0             -0.050508064   -0.1400839    
   1906000   0.13094598    -0.18729386     0             -0.0793065     -0.16839438   
   1906500   0.20745044    -0.17728748     0             -0.0062091126  -0.187862     
   1907000   0.21846711    -0.17956267     0              0.00060083298 -0.17582633   
   1907500   0.15390428    -0.18075756     0             -0.053837156    0.26590346   
   1908000   0.17791387    -0.17095919     0             -0.024238766   -0.38061466   
   1908500   0.19844989    -0.17195609     0             -0.0083002162  -0.11010218   
   1909000   0.16933321    -0.17252316     0             -0.032878966   -0.20838686   
   1909500   0.13849489    -0.17691232     0             -0.062699601   -0.08335333   
   1910000   0.18386994    -0.18172897     0             -0.030096748   -0.17439534   
   1910500   0.19412067    -0.17303546     0             -0.012949765   -0.11815371   
   1911000   0.16614465    -0.17964439     0             -0.042629701    0.16445309   
   1911500   0.17978449    -0.1676928      0             -0.019429734    0.54577517   
   1912000   0.1613348     -0.17138931     0             -0.03834117     0.07564772   
   1912500   0.16808778    -0.17347151     0             -0.034854382    0.07526974   
   1913000   0.15347548    -0.18283489     0             -0.056268103   -0.47063157   
   1913500   0.13414609    -0.1799123      0             -0.069285901    0.69746311   
   1914000   0.16123672    -0.17597854     0             -0.043011283    0.68492632   
   1914500   0.15007204    -0.17701201     0             -0.05325194     0.6188292    
   1915000   0.16107251    -0.18422351     0             -0.05139168     0.095512256  
   1915500   0.18119919    -0.17485831     0             -0.025428587   -0.31758382   
   1916000   0.1793628     -0.17287747     0             -0.02496216     0.036893394  
   1916500   0.14677012    -0.17781844     0             -0.056781366    0.10552767   
   1917000   0.16072293    -0.18728674     0             -0.054743185    0.19829587   
   1917500   0.17521468    -0.17758931     0             -0.033094836   -0.18499967   
   1918000   0.13974246    -0.18264004     0             -0.067398475    0.043714526  
   1918500   0.17581596    -0.18181996     0             -0.036829629   -0.19732616   
   1919000   0.14020222    -0.18173641     0             -0.066115698    0.12795786   
   1919500   0.18074549    -0.17497213     0             -0.025916551    0.34198892   
   1920000   0.16148442    -0.1701666      0             -0.036995069   -0.17722197   
   1920500   0.15946117    -0.17672229     0             -0.045219287    0.65497138   
   1921000   0.12779007    -0.18057727     0             -0.075192501   -0.30394344   
   1921500   0.13881064    -0.18297673     0             -0.068503613   -0.31033301   
   1922000   0.1372334     -0.1883137      0             -0.075141289   -0.53429991   
   1922500   0.11765129    -0.19134084     0             -0.094317227    0.035232461  
   1923000   0.16578141    -0.18958242     0             -0.052867289   -0.17935855   
   1923500   0.15400467    -0.19036465     0             -0.063361449   -0.054395137  
   1924000   0.13405971    -0.18574129     0             -0.075186127   -0.38741274   
   1924500   0.13856772    -0.18124779     0             -0.066975001   -0.33891039   
   1925000   0.1407447     -0.19250728     0             -0.0764392      0.14579044   
   1925500   0.16021362    -0.18418984     0             -0.052066301   -0.026517147  
   1926000   0.17211213    -0.18062202     0             -0.03868613     0.23372222   
   1926500   0.15318335    -0.17775281     0             -0.051426936    0.33847453   
   1927000   0.13904944    -0.1784468      0             -0.063776753   -0.22486574   
   1927500   0.17981267    -0.17870651     0             -0.030420206   -0.59589942   
   1928000   0.16505541    -0.17781462     0             -0.041698201    0.024766235  
   1928500   0.12533932    -0.18099441     0             -0.077630698    0.081936055  
   1929000   0.11256738    -0.18680608     0             -0.093975022   -0.28553572   
   1929500   0.16589059    -0.17600472     0             -0.039199552    0.081345075  
   1930000   0.17297584    -0.18122119     0             -0.038573024    0.65569317   
   1930500   0.21372051    -0.1721111      0              0.0041380215   0.18281563   
   1931000   0.16286704    -0.16890261     0             -0.034590871   -0.45367809   
   1931500   0.14795792    -0.1815941      0             -0.059577489   -0.02158175   
   1932000   0.17649579    -0.17401853     0             -0.028467554    0.38980461   
   1932500   0.17547008    -0.17333513     0             -0.028630042   -0.14567229   
   1933000   0.1728909     -0.1737294      0             -0.031151279    0.42486223   
   1933500   0.19755668    -0.16395345     0             -0.0010341782   0.36203518   
   1934000   0.13784626    -0.17118063     0             -0.057502808    0.19232149   
   1934500   0.13524155    -0.17702094     0             -0.06549115    -0.3260964    
   1935000   0.16360781    -0.16828319     0             -0.033360571    0.18967777   
   1935500   0.15856685    -0.16790252     0             -0.037137027   -0.12645212   
   1936000   0.16783754    -0.17368568     0             -0.035274919    0.85727152   
   1936500   0.15173717    -0.18076943     0             -0.055636173   -0.38706842   
   1937000   0.16984387    -0.18036019     0             -0.040294861   -0.82340703   
   1937500   0.2013136     -0.17134279     0             -0.0053252903   0.019604711  
   1938000   0.17464993    -0.17789456     0             -0.033865817    0.41219032   
   1938500   0.14271389    -0.17677164     0             -0.059079625   -0.016642225  
   1939000   0.14169948    -0.18236875     0             -0.065513291    0.61724808   
   1939500   0.12191655    -0.1843827      0             -0.083841649   -0.30471628   
   1940000   0.17260014    -0.18299865     0             -0.040660314    0.40606234   
   1940500   0.17077538    -0.17668527     0             -0.035851757    0.084522933  
   1941000   0.20476025    -0.1716515      0             -0.0027916513  -0.19615289   
   1941500   0.1720508     -0.17358401     0             -0.031698691    0.091636169  
   1942000   0.21627305    -0.1719283      0              0.0064258228  -0.32788732   
   1942500   0.17041128    -0.17265241     0             -0.032119166   -0.10467876   
   1943000   0.21309071    -0.17792685     0             -0.0021971173   0.13336538   
   1943500   0.16861739    -0.17978003     0             -0.040726144   -0.31884886   
   1944000   0.16689652    -0.17653107     0             -0.038896336    0.40401226   
   1944500   0.20384695    -0.17125421     0             -0.0031475242  -0.039442196  
   1945000   0.21758991    -0.17432587     0              0.0051142338   0.20371946   
   1945500   0.26466756    -0.16864854     0              0.049615139   -0.17288564   
   1946000   0.28864119    -0.16358881     0              0.074445221   -0.45682774   
   1946500   0.20775662    -0.1656009      0              0.005729973   -0.42706312   
   1947000   0.17173627    -0.17252904     0             -0.030903104   -0.40527763   
   1947500   0.25509104    -0.16374229     0              0.046623902   -0.10044664   
   1948000   0.20618448    -0.1603271      0              0.0097072747  -0.32856879   
   1948500   0.19071737    -0.16129065     0             -0.0040115555   0.13610569   
   1949000   0.18861121    -0.1594282      0             -0.0038859966  -0.39885317   
   1949500   0.20804732    -0.15600058     0              0.015570027    0.064198035  
   1950000   0.14882491    -0.16018023     0             -0.037448633   -0.26550775   
   1950500   0.15140348    -0.16038691     0             -0.035528844    0.36257553   
   1951000   0.13617805    -0.16949027     0             -0.057188181   -0.18901692   
   1951500   0.135851      -0.16785871     0             -0.055826319   -0.1680741    
   1952000   0.14141502    -0.16808008     0             -0.05145921     0.044474208  
   1952500   0.18630688    -0.16703415     0             -0.013392265    0.27864173   
   1953000   0.13103012    -0.17196437     0             -0.063907626    0.29915341   
   1953500   0.15021878    -0.17692468     0             -0.0530436     -0.01619627   
   1954000   0.14026532    -0.170127       0             -0.054454255    0.32938204   
   1954500   0.18210797    -0.16596226     0             -0.015783082   -0.13879068   
   1955000   0.21949863    -0.1619541      0              0.019060064   -0.20829681   
   1955500   0.18754949    -0.16310267     0             -0.0084360401   0.21858679   
   1956000   0.18150333    -0.17582379     0             -0.026143248    0.099580793  
   1956500   0.19815199    -0.1695483      0             -0.0061380935  -0.097538932  
   1957000   0.18443805    -0.1670884      0             -0.014987681   -0.017966656  
   1957500   0.17405257    -0.17367432     0             -0.030138202   -0.32791621   
   1958000   0.14739667    -0.17860892     0             -0.057055152   -0.045793282  
   1958500   0.12971148    -0.17760091     0             -0.070631608   -0.32949855   
   1959000   0.17538248    -0.17547188     0             -0.030839029   -0.092174202  
   1959500   0.14582748    -0.17374988     0             -0.053490171   -0.32295018   
   1960000   0.17008035    -0.18225452     0             -0.041994181    0.44357782   
   1960500   0.17152527    -0.17358487     0             -0.032132943    0.031859893  
   1961000   0.13337295    -0.17185321     0             -0.061864405    0.017124156  
   1961500   0.16900284    -0.17715655     0             -0.037784794    0.2840514    
   1962000   0.14102589    -0.18375202     0             -0.067452051    0.25795405   
   1962500   0.14597264    -0.18658737     0             -0.066207956   -0.35695284   
   1963000   0.15340338    -0.18144724     0             -0.05493991    -0.099905868  
   1963500   0.15103611    -0.183711       0             -0.059155896    0.11487807   
   1964000   0.13979707    -0.17929386     0             -0.064007262    0.47602046   
   1964500   0.13715433    -0.18163231     0             -0.068525103    0.37714813   
   1965000   0.1311604     -0.18362311     0             -0.075458926    0.36689363   
   1965500   0.14141964    -0.18741587     0             -0.070791192   -0.08759072   
   1966000   0.16085133    -0.18700266     0             -0.05435322    -0.41344763   
   1966500   0.17601681    -0.18759076     0             -0.042434794    0.27566042   
   1967000   0.19332561    -0.18260316     0             -0.023173126    0.028554129  
   1967500   0.15320001    -0.1749951      0             -0.048655483   -0.20965667   
   1968000   0.14986077    -0.1883347      0             -0.06474886     0.094801446  
   1968500   0.15305105    -0.1816538      0             -0.055437031    0.2297601    
   1969000   0.13037739    -0.18757604     0             -0.080057574   -0.16795697   
   1969500   0.1169195     -0.19107055     0             -0.094650424   -0.075701174  
   1970000   0.15344138    -0.1964505      0             -0.069911842   -0.42216067   
   1970500   0.15554705    -0.19015657     0             -0.061881421    0.075971001  
   1971000   0.19627045    -0.18341223     0             -0.021553678    0.056941104  
   1971500   0.17254135    -0.18825464     0             -0.045964788    0.067541295  
   1972000   0.19613046    -0.18397964     0             -0.022236527   -0.33716109   
   1972500   0.20742335    -0.17917168     0             -0.0081156485   0.26118205   
   1973000   0.19620153    -0.17090073     0             -0.0090990072   0.081494957  
   1973500   0.25012582    -0.16998171     0              0.036289818    0.29927641   
   1974000   0.21111349    -0.17172338     0              0.002375807    0.31633728   
   1974500   0.19008071    -0.17333197     0             -0.016577908    0.065034148  
   1975000   0.24528898    -0.17227769     0              0.030005031   -0.81218023   
   1975500   0.21597846    -0.15700388     0              0.021107303   -0.19605369   
   1976000   0.19623774    -0.16099377     0              0.00083781042  0.095754212  
   1976500   0.17360168    -0.16532812     0             -0.022163837    0.097794384  
   1977000   0.15865073    -0.17338257     0             -0.04254791    -0.20269856   
   1977500   0.16652072    -0.16563698     0             -0.028312159    0.20806633   
   1978000   0.18825043    -0.16183918     0             -0.0065945016  -0.17127577   
   1978500   0.19311135    -0.16848334     0             -0.009229995    0.08849643   
   1979000   0.16402194    -0.16857107     0             -0.033306932    0.039933694  
   1979500   0.1467947     -0.17195615     0             -0.050898814   -0.088206525  
   1980000   0.12965669    -0.17038811     0             -0.063463989   -0.1788702    
   1980500   0.16192768    -0.18227998     0             -0.04874291     0.5468745    
   1981000   0.17732451    -0.1709071      0             -0.024672709    0.43975538   
   1981500   0.14117299    -0.17095391     0             -0.054532631    0.46464037   
   1982000   0.13703466    -0.17138757     0             -0.058379049   -0.31740149   
   1982500   0.21575832    -0.17157203     0              0.0063576184   0.148891     
   1983000   0.21139774    -0.16864323     0              0.0056903683  -0.92183934   
   1983500   0.19553444    -0.17095233     0             -0.0097007311  -0.15103164   
   1984000   0.20414602    -0.17314123     0             -0.0047879165   0.30770777   
   1984500   0.17938576    -0.17357541     0             -0.02564116     0.27182473   
   1985000   0.17595347    -0.17147892     0             -0.02637519     0.38802111   
   1985500   0.1772562     -0.17685614     0             -0.03067808     0.028993365  
   1986000   0.16179653    -0.17886282     0             -0.045433907   -0.15198215   
   1986500   0.16865492    -0.17714231     0             -0.038057482   -0.55608743   
   1987000   0.18394061    -0.17866029     0             -0.026969794   -0.59953539   
   1987500   0.17959776    -0.17872596     0             -0.030616888   -0.0097609481 
   1988000   0.14782188    -0.17704233     0             -0.055137911    0.19891428   
   1988500   0.13292694    -0.1784654      0             -0.068844401    0.46491336   
   1989000   0.14593484    -0.17560466     0             -0.055256426    0.053332742  
   1989500   0.14617469    -0.18585553     0             -0.065309492   -0.23723255   
   1990000   0.14344388    -0.18850571     0             -0.070211698   -0.089426706  
   1990500   0.18344967    -0.17552766     0             -0.02424203    -0.33789589   
   1991000   0.22964399    -0.16260806     0              0.026772684    0.40402094   
   1991500   0.16611304    -0.16560374     0             -0.028615126   -0.31678116   
   1992000   0.20805864    -0.16894999     0              0.0026299494   0.101509     
   1992500   0.18194026    -0.16454556     0             -0.014504692   -0.24651078   
   1993000   0.16745802    -0.1628851      0             -0.024787317   -0.10768189   
   1993500   0.19071283    -0.15999367     0             -0.002718316    0.013880618  
   1994000   0.14933781    -0.1672269      0             -0.044072324   -0.32715335   
   1994500   0.18823274    -0.16458937     0             -0.0093592794   0.75624781   
   1995000   0.11817487    -0.17454505     0             -0.077089662   -0.13429855   
   1995500   0.19983677    -0.17573194     0             -0.010932338   -0.072935709  
   1996000   0.15935133    -0.17241786     0             -0.041005431   -0.11535444   
   1996500   0.19085407    -0.18016879     0             -0.022776969   -0.22316463   
   1997000   0.21906248    -0.16574608     0              0.01490841     0.16833465   
   1997500   0.21720739    -0.16945287     0              0.0096717733   0.27286954   
   1998000   0.20595798    -0.17427657     0             -0.0044289842   0.37533241   
   1998500   0.21103817    -0.16460246     0              0.0094346147   0.15989344   
   1999000   0.19568638    -0.17049976     0             -0.0091228666   0.58721702   
   1999500   0.19132853    -0.16795104     0             -0.010167934   -0.2915213    
   2000000   0.24075009    -0.16414392     0              0.034395715    0.078505331  
   2000001   0.2404884     -0.16543228     0              0.032891537    0.28770906   
Loop time of 170.002 on 4 procs for 1000000 steps with 1520 atoms

Performance: 508227.980 tau/day, 5882.268 timesteps/s, 8.941 Matom-step/s
89.2% CPU use with 4 MPI tasks x 1 OpenMP threads

MPI task timing breakdown:
Section |  min time  |  avg time  |  max time  |%varavg| %total
---------------------------------------------------------------
Pair    | 22.382     | 22.774     | 23.264     |   7.4 | 13.40
Bond    | 0.061845   | 0.063631   | 0.065772   |   0.6 |  0.04
Neigh   | 5.8245     | 5.8249     | 5.8253     |   0.0 |  3.43
Comm    | 20.663     | 21.101     | 21.5       |   6.9 | 12.41
Output  | 0.74301    | 0.78853    | 0.83683    |   3.9 |  0.46
Modify  | 115.97     | 116.06     | 116.16     |   0.7 | 68.27
Other   |            | 3.386      |            |       |  1.99

Nlocal:            380 ave         400 max         362 min
Histogram: 1 1 0 0 0 0 0 1 0 1
Nghost:            956 ave         983 max         939 min
Histogram: 1 0 2 0 0 0 0 0 0 1
Neighs:              0 ave           0 max           0 min
Histogram: 4 0 0 0 0 0 0 0 0 0

Total # of neighbors = 0
Ave neighs/atom = 0
Ave special neighs/atom = 2.0657895
Neighbor list builds = 7198
Dangerous builds = 0

# Write data for deformation

write_data data.hydrogel
System init for write_data ...
WARNING: Using a manybody potential with bonds/angles/dihedrals and special_bond exclusions (src/pair.cpp:243)
Hybrid pair style last /omp style sw/omp
Last active /omp style is pair_style sw/omp
WARNING: More than one fix rigid command (src/RIGID/fix_rigid_small.cpp:529)
WARNING: More than one fix rigid command (src/RIGID/fix_rigid_small.cpp:529)
WARNING: One or more atoms are time integrated more than once (src/modify.cpp:296)
Total wall time: 0:05:41
