LAMMPS (29 Aug 2024)
OMP_NUM_THREADS environment is not set. Defaulting to 1 thread. (src/comm.cpp:98)
  using 1 OpenMP thread(s) per MPI task
package omp 0
using multi-threaded neighbor list subroutines
# Input Script of lammps for assembly simulation of polimeric network.

# Fco. Vazquez and Felipe Benavides

# Initialization
units lj
dimension 3
boundary p p p

# Styles of atoms and that stuff
atom_style bond
bond_style zero nocoeff
#pair_style hybrid/overlay/omp zero 0.0 lj/cut/omp 1.12 table/omp linear 5000000 threebody/table
pair_style hybrid/overlay/omp zero 0.0 lj/cut/omp 1.12 sw/omp threebody off threebody/table
newton on

# Create simulaiton box
region simulation_box block -$L $L -$L $L -$L $L
region simulation_box block -6.932675 $L -$L $L -$L $L
region simulation_box block -6.932675 6.932675 -$L $L -$L $L
region simulation_box block -6.932675 6.932675 -6.932675 $L -$L $L
region simulation_box block -6.932675 6.932675 -6.932675 6.932675 -$L $L
region simulation_box block -6.932675 6.932675 -6.932675 6.932675 -6.932675 $L
region simulation_box block -6.932675 6.932675 -6.932675 6.932675 -6.932675 6.932675
# N-atom-types region-ID keyword value Is necesesary the extra/special/per/atom (# of special neighbors per atom)
create_box 4 simulation_box     bond/types 1     extra/bond/per/atom 4     extra/special/per/atom 5
Created orthogonal box = (-6.932675 -6.932675 -6.932675) to (6.932675 6.932675 6.932675)
  2 by 1 by 2 MPI processor grid

# Atom types
mass 1 1.0      # CL
mass 2 1.0      # MO
mass 3 0.5      # PA
mass 4 0.5      # PB

# Coefficients
include potential.in
# Script with the pair-wise interaction and bonds between particles

bond_coeff * nocoeff
pair_coeff 1 3 zero
pair_coeff 1 4 zero
pair_coeff 2 3 zero
pair_coeff 2 4 zero
pair_coeff 3 3 zero
pair_coeff 1 1 lj/cut/omp 1.0 1.0 1.12
pair_coeff 2 2 lj/cut/omp 1.0 1.0 1.12
pair_coeff 1 2 lj/cut/omp 1.0 1.0 1.12
pair_coeff 3 4 sw/omp sysFiles/patchyPot.sw NULL NULL PA PB
  disabling sw potential three-body terms
pair_coeff 4 4 sw/omp sysFiles/patchyPot.sw NULL NULL PA PB
pair_coeff * * threebody/table swapMech.3b NULL NULL PA PB
pair_modify pair lj/cut/omp shift yes


# Molecules
include molecules.in
# Script with all molecule information and create groups for computes

# Read the molecule information
molecule CL sysFiles/molecule.patchy.CL
Read molecule template CL:
# Patchy Cross-Linker
  1 molecules
  0 fragments
  5 atoms with max type 3
  4 bonds with max type 1
  0 angles with max type 0
  0 dihedrals with max type 0
  0 impropers with max type 0
molecule MO sysFiles/molecule.patchy.MO
Read molecule template MO:
# Patchy Monomer
  1 molecules
  0 fragments
  3 atoms with max type 4
  2 bonds with max type 1
  0 angles with max type 0
  0 dihedrals with max type 0
  0 impropers with max type 0

# Introduce the molecules
# ID style args keyword arg
region spawn_box block -$L $L -$L $L -$L $L
region spawn_box block -6.932675 $L -$L $L -$L $L
region spawn_box block -6.932675 6.932675 -$L $L -$L $L
region spawn_box block -6.932675 6.932675 -6.932675 $L -$L $L
region spawn_box block -6.932675 6.932675 -6.932675 6.932675 -$L $L
region spawn_box block -6.932675 6.932675 -6.932675 6.932675 -6.932675 $L
region spawn_box block -6.932675 6.932675 -6.932675 6.932675 -6.932675 6.932675

# create_atoms type style args keyword values
# style_random: N seed region-ID
# keyword_mol: template-ID seed
# keyword_overlap: overlap value = only insert if at least this distance from all existing atoms
# keyword_maxtry: maxtry value = number of attempts to insert a particle before failure
create_atoms 0 random ${NCL} ${seed1} spawn_box mol CL ${seed1} overlap 1.0 maxtry 5000 #xls
create_atoms 0 random 10 ${seed1} spawn_box mol CL ${seed1} overlap 1.0 maxtry 5000 
create_atoms 0 random 10 1234 spawn_box mol CL ${seed1} overlap 1.0 maxtry 5000 
create_atoms 0 random 10 1234 spawn_box mol CL 1234 overlap 1.0 maxtry 5000 
Created 50 atoms
  using lattice units in orthogonal box = (-6.932675 -6.932675 -6.932675) to (6.932675 6.932675 6.932675)
  create_atoms CPU = 0.002 seconds
create_atoms 0 random ${NMO} ${seed2} spawn_box mol MO ${seed2} overlap 1.0 maxtry 5000 #mon
create_atoms 0 random 490 ${seed2} spawn_box mol MO ${seed2} overlap 1.0 maxtry 5000 
create_atoms 0 random 490 4321 spawn_box mol MO ${seed2} overlap 1.0 maxtry 5000 
create_atoms 0 random 490 4321 spawn_box mol MO 4321 overlap 1.0 maxtry 5000 
Created 1470 atoms
  using lattice units in orthogonal box = (-6.932675 -6.932675 -6.932675) to (6.932675 6.932675 6.932675)
  create_atoms CPU = 0.132 seconds

# Create patchy particles
group CrossLinker type 1 3
50 atoms in group CrossLinker
group Monomer type 2 4
1470 atoms in group Monomer
group Patches type 3 4
1020 atoms in group Patches
group CL type 1
10 atoms in group CL
group MO type 2
490 atoms in group MO
group PA type 3
40 atoms in group PA
group CM type 1 2
500 atoms in group CM

# Fix rigid bodies
fix frCL CrossLinker rigid/small/omp molecule
  create bodies CPU = 0.000 seconds
  10 rigid bodies with 50 atoms
  0.46400431 = max distance from body owner to body atom
fix frMO Monomer rigid/small/omp molecule
  create bodies CPU = 0.000 seconds
  490 rigid bodies with 1470 atoms
  0.5 = max distance from body owner to body atom

# Neighbor list
neighbor 1.12 bin # extra-distance style
neigh_modify exclude molecule/intra CrossLinker
neigh_modify exclude molecule/intra Monomer

# COMPUTES

# Compute global kinetic and potential energy and temperature
compute t all temp
compute tCM CM temp
compute ep all pe
compute ek all ke
compute ekCM CM ke
compute stressVirial all pressure t ke pair
compute wcaPair all pair lj/cut/omp epair
compute patchPair all pair sw/omp epair
compute swapPair all pair threebody/table epair
compute disc CM displace/atom
compute daux CM chunk/atom type pbc yes
compute dis CM reduce/chunk daux sum c_disc[4]
#compute disM CM reduce/chunk daux sum c_disc[4]

# Energy minimization
minimize 1.0e-4 1.0e-6 1000 10000
WARNING: Using a manybody potential with bonds/angles/dihedrals and special_bond exclusions (src/pair.cpp:243)
Hybrid pair style last /omp style sw/omp
Last active /omp style is pair_style sw/omp
WARNING: More than one fix rigid command (src/RIGID/fix_rigid_small.cpp:529)
WARNING: More than one fix rigid command (src/RIGID/fix_rigid_small.cpp:529)
Neighbor list info ...
  update: every = 1 steps, delay = 0 steps, check = yes
  max neighbors/atom: 2000, page size: 100000
  master list distance cutoff = 2.24
  ghost atom cutoff = 2.24
  binsize = 1.12, bins = 13 13 13
  6 neighbor lists, perpetual/occasional/extra = 6 0 0
  (1) pair zero, perpetual, skip from (5)
      attributes: half, newton on, omp
      pair build: skip/omp
      stencil: none
      bin: none
  (2) pair lj/cut/omp, perpetual, skip from (5)
      attributes: half, newton on, omp
      pair build: skip/omp
      stencil: none
      bin: none
  (3) pair sw/omp, perpetual, skip trim from (5)
      attributes: half, newton on, omp, cut 1.87
      pair build: skip/trim/omp
      stencil: none
      bin: none
  (4) pair threebody/table, perpetual, skip from (6)
      attributes: full, newton on, omp, cut 1.7200000000000002
      pair build: skip/omp
      stencil: none
      bin: none
  (5) neighbor class addition, perpetual
      attributes: half, newton on, omp
      pair build: half/bin/newton/omp
      stencil: half/bin/3d
      bin: standard
  (6) neighbor class addition, perpetual
      attributes: full, newton on, omp, cut 1.7200000000000002
      pair build: full/bin/omp
      stencil: full/bin/3d
      bin: standard
WARNING: Cannot count rigid body degrees-of-freedom before bodies are fully initialized (src/RIGID/fix_rigid_small.cpp:1129)
WARNING: Cannot count rigid body degrees-of-freedom before bodies are fully initialized (src/RIGID/fix_rigid_small.cpp:1129)
WARNING: Cannot count rigid body degrees-of-freedom before bodies are fully initialized (src/RIGID/fix_rigid_small.cpp:1129)
WARNING: Cannot count rigid body degrees-of-freedom before bodies are fully initialized (src/RIGID/fix_rigid_small.cpp:1129)
WARNING: Cannot count rigid body degrees-of-freedom before bodies are fully initialized (src/RIGID/fix_rigid_small.cpp:1129)
WARNING: Cannot count rigid body degrees-of-freedom before bodies are fully initialized (src/RIGID/fix_rigid_small.cpp:1129)
Per MPI rank memory allocation (min/avg/max) = 20.01 | 20.01 | 20.02 Mbytes
   Step          Temp          E_pair         E_mol          TotEng         Press     
         0   0              0.00067516832  0              0.00067516832  0.00636608   
         1   0              0.00067516832  0              0.00067516832  0.00636608   
Loop time of 0.000249216 on 4 procs for 1 steps with 1520 atoms

96.7% CPU use with 4 MPI tasks x 1 OpenMP threads

Minimization stats:
  Stopping criterion = quadratic factors are zero
  Energy initial, next-to-last, final = 
    0.000675168319707251 0.000675168319707251 0.000675168319707251
  Force two-norm initial, final = 21.154727 21.154727
  Force max component initial, final = 6.3589627 6.3589627
  Final line search alpha, max atom move = 0.015725835 0.1
  Iterations, force evaluations = 1 2

MPI task timing breakdown:
Section |  min time  |  avg time  |  max time  |%varavg| %total
---------------------------------------------------------------
Pair    | 6.0714e-05 | 7.571e-05  | 0.0001028  |   0.0 | 30.38
Bond    | 3.55e-07   | 4.365e-07  | 5.17e-07   |   0.0 |  0.18
Neigh   | 0          | 0          | 0          |   0.0 |  0.00
Comm    | 8.5848e-05 | 0.00011189 | 0.0001252  |   0.0 | 44.90
Output  | 0          | 0          | 0          |   0.0 |  0.00
Modify  | 6.157e-06  | 7.321e-06  | 8.629e-06  |   0.0 |  2.94
Other   |            | 5.386e-05  |            |       | 21.61

Nlocal:            380 ave         382 max         378 min
Histogram: 1 0 0 0 0 2 0 0 0 1
Nghost:        1000.75 ave        1005 max         993 min
Histogram: 1 0 0 0 0 0 0 1 1 1
Neighs:              0 ave           0 max           0 min
Histogram: 4 0 0 0 0 0 0 0 0 0

Total # of neighbors = 0
Ave neighs/atom = 0
Ave special neighs/atom = 2.0657895
Neighbor list builds = 0
Dangerous builds = 0

# DUMPS and FIXES

thermo ${sstep}
thermo 500

# Save atom positions
dump dumpID all atom ${sstep} info/dumps/assembly/patchyParticles_assembly.*.dumpf
dump dumpID all atom 500 info/dumps/assembly/patchyParticles_assembly.*.dumpf
dump_modify dumpID pbc yes # remap atoms via periodic boundary conditions

# Save global energies and temperature
group Energy empty
0 atoms in group Energy
fix fixEng Energy ave/time 1 10 10 c_t c_ep c_ek c_tCM file info/energy_assembly.fixf

group PairE1 empty
0 atoms in group PairE1
group PairE2 empty
0 atoms in group PairE2
group PairE3 empty
0 atoms in group PairE3

fix fixwca PairE1 ave/time 1 10 10 c_wcaPair file info/wcaPair_assembly.fixf
fix fixpatch PairE2 ave/time 1 10 10 c_patchPair file info/patchPair_assembly.fixf
fix fixswap PairE3 ave/time 1 10 10 c_swapPair file info/swapPair_assembly.fixf

# Save Atom displacement
group Displ empty
0 atoms in group Displ
fix fixDispl Displ ave/time 1 ${Nave} ${Nave} c_dis[1] c_dis[2] c_dis[3] c_dis[4] file info/cmdisplacement_assembly.fixf
fix fixDispl Displ ave/time 1 100000 ${Nave} c_dis[1] c_dis[2] c_dis[3] c_dis[4] file info/cmdisplacement_assembly.fixf
fix fixDispl Displ ave/time 1 100000 100000 c_dis[1] c_dis[2] c_dis[3] c_dis[4] file info/cmdisplacement_assembly.fixf

# Save Stress tensor
group Stress empty
0 atoms in group Stress
fix fixStress5 Stress ave/time 1 ${Nave} ${Nave} c_stressVirial[*] file info/stressVirial_assembly.fixf
fix fixStress5 Stress ave/time 1 100000 ${Nave} c_stressVirial[*] file info/stressVirial_assembly.fixf
fix fixStress5 Stress ave/time 1 100000 100000 c_stressVirial[*] file info/stressVirial_assembly.fixf

# RUN SIMULATION

# Brownian Dynamics using Langevin Thermostat

# Set the time integrator
fix VelVerlet all nve/omp # Use Velocity Verlet integrator
timestep ${tstep}
timestep 0.001

# First elevate the temperature
fix ThermoLng all langevin 0.0 ${temp} ${damp} 12345 # Brownian Dynamics: langevin + nve
fix ThermoLng all langevin 0.0 0.05 ${damp} 12345 
fix ThermoLng all langevin 0.0 0.05 1 12345 
run 1000000
WARNING: Using a manybody potential with bonds/angles/dihedrals and special_bond exclusions (src/pair.cpp:243)
Hybrid pair style last /omp style sw/omp
Last active /omp style is pair_style sw/omp
WARNING: More than one fix rigid command (src/RIGID/fix_rigid_small.cpp:529)
WARNING: More than one fix rigid command (src/RIGID/fix_rigid_small.cpp:529)
WARNING: One or more atoms are time integrated more than once (src/modify.cpp:296)
WARNING: Computing temperature of portions of rigid bodies (src/RIGID/fix_rigid_small.cpp:1178)
WARNING: Computing temperature of portions of rigid bodies (src/RIGID/fix_rigid_small.cpp:1178)
Per MPI rank memory allocation (min/avg/max) = 20.32 | 20.33 | 20.33 Mbytes
   Step          Temp          E_pair         E_mol          TotEng         Press     
         1   0              0.00067516832  0              0.00067516832  0.021123967  
       500   0.00035952529  0              0              0.0002964901  -0.002371193  
      1000   0.00015858646  3.6216827e-07  0              0.00013114383 -0.0073469111 
      1500   9.9034291e-05  0              0              8.1670713e-05 -0.011984611  
      2000   9.1797e-05     0              0              7.5702329e-05  0.0095307797 
      2500   0.00010171469  0              0              8.3881164e-05  0.00066157764
      3000   0.00012179843  2.563808e-07   0              0.00010070002 -0.032853804  
      3500   0.00014387161  0              0              0.00011864675  0.020184223  
      4000   0.00017681409  0              0              0.00014581346  0.0017651131 
      4500   0.00019251553  0              0              0.00015876198  0.0061737857 
      5000   0.00021586579  0              0              0.00017801827  0.0040573602 
      5500   0.0002595638   7.028814e-08   0              0.00021412504 -0.023906076  
      6000   0.00027442865  0              0              0.00022631336 -0.025119729  
      6500   0.00028989197  0              0              0.00023906552 -0.0075973777 
      7000   0.00031462893  0              0              0.00025946537  0.0082170499 
      7500   0.00034601217  0              0              0.00028534622 -0.026382027  
      8000   0.00037245883  0              0              0.00030715601 -0.0039402865 
      8500   0.00042462783  1.3582799e-07  0              0.00035031411  0.010012875  
      9000   0.00043540613  0              0              0.00035906683  0.04157802   
      9500   0.00045013918  1.4088348e-06  0              0.00037262558  0.031776308  
     10000   0.00048729808  0              0              0.00040186062 -0.043390587  
     10500   0.00050907326  1.3394972e-08  0              0.00041983138  0.010169468  
     11000   0.00050785873  0              0              0.00041881639 -0.035558981  
     11500   0.00057005826  3.7716841e-07  0              0.00047048771  0.0015388774 
     12000   0.00057383823  3.3059284e-07  0              0.00047355837 -0.048060931  
     12500   0.00056424903 -2.3783373e-13  0              0.00046531984  0.023700006  
     13000   0.00058628242  6.9636778e-07  0              0.00048418651 -0.022337909  
     13500   0.00062030609  2.4905283e-06  0              0.000514039   -0.0077993853 
     14000   0.00065856418 -2.3158101e-08  0              0.00054307566  0.024149329  
     14500   0.00070253705 -8.2189253e-10  0              0.00057936115 -0.019264036  
     15000   0.00072207257  9.7395045e-07  0              0.00059644629 -0.01737003   
     15500   0.00072753479 -6.2859358e-32  0              0.00059997688  0.0021675968 
     16000   0.00071648838  6.2158357e-07  0              0.00059148881 -0.042027956  
     16500   0.00079107769  1.066293e-06   0              0.00065344517 -0.029526184  
     17000   0.00082494972 -1.0129119e-07  0              0.00068021086  0.012713949  
     17500   0.0012554014  -0.00039110465  0              0.00064418853  0.033637023  
     18000   0.0017520412  -0.0012951385   0              0.00014971917 -0.052379805  
     18500   0.0017868229  -0.0021407819   0             -0.00066724078  0.028855285  
     19000   0.0013267761  -0.0023467374   0             -0.0012525836  -0.015158226  
     19500   0.0016135244  -0.0034386235   0             -0.0021079967  -0.057571143  
     20000   0.0020718183  -0.004817091    0             -0.0031085224  -0.082180066  
     20500   0.0015809264  -0.0052551306   0             -0.0039513863   0.0049393512 
     21000   0.0013519056  -0.0056206482   0             -0.0045057708   0.0055180791 
     21500   0.0016988957  -0.0064858513   0             -0.0050848212   0.077538687  
     22000   0.001894184   -0.0078620347   0             -0.006299956    0.028852287  
     22500   0.0028000724  -0.010095427    0             -0.0077862887   0.039953988  
     23000   0.0025009423  -0.011245047    0             -0.009182592    0.076059523  
     23500   0.0033275697  -0.013734311    0             -0.010990161   -0.057798614  
     24000   0.0024837302  -0.014742943    0             -0.012694682   -0.0091045318 
     24500   0.0025993285  -0.016387195    0             -0.014243604    0.015033188  
     25000   0.0020995634  -0.01742529     0             -0.015693841    0.011413647  
     25500   0.0019779161  -0.018077508    0             -0.016446378   -0.062605312  
     26000   0.0027769354  -0.020185426    0             -0.017895368    0.085199875  
     26500   0.002284343   -0.021091825    0             -0.019207993   -0.018444118  
     27000   0.0017840441  -0.021638425    0             -0.020167175   -0.025261478  
     27500   0.0018754915  -0.022198178    0             -0.020651515   -0.038578626  
     28000   0.0028143955  -0.023732452    0             -0.021411502    0.0011797422 
     28500   0.0023032288  -0.025326532    0             -0.023427125    0.051232822  
     29000   0.0027760023  -0.027469048    0             -0.02517976    -0.023184979  
     29500   0.0025771301  -0.02842845     0             -0.026303166    0.03580016   
     30000   0.0026789258  -0.030004565    0             -0.027795332    0.064339717  
     30500   0.0033027603  -0.032683084    0             -0.029959394   -0.044442568  
     31000   0.002984049   -0.034153161    0             -0.031692302   -0.047364321  
     31500   0.0023282974  -0.034768329    0             -0.03284825     0.11265809   
     32000   0.0024938959  -0.036205946    0             -0.034149303   -0.027726053  
     32500   0.002191829   -0.036686609    0             -0.034879071    0.061263079  
     33000   0.0021043428  -0.037199726    0             -0.035464336   -0.015242152  
     33500   0.0034179123  -0.039465718    0             -0.036647064    0.0062793838 
     34000   0.0033170298  -0.040583972    0             -0.037848514    0.023800792  
     34500   0.0034257196  -0.042735137    0             -0.039910045    0.078278801  
     35000   0.0036219071  -0.044269722    0             -0.04128284    -0.072971056  
     35500   0.00407871    -0.045736296    0             -0.042372702   -0.0091075818 
     36000   0.0028824403  -0.046073815    0             -0.04369675    -0.067901882  
     36500   0.0029116272  -0.048041151    0             -0.045640016   -0.096405628  
     37000   0.0028543837  -0.048969277    0             -0.04661535     0.11222903   
     37500   0.0031267834  -0.050239059    0             -0.047660491    0.039022243  
     38000   0.0035722016  -0.050948569    0             -0.048002677   -0.034116055  
     38500   0.0052441068  -0.050092604    0             -0.045767941   -0.015711512  
     39000   0.005594444   -0.053112648    0             -0.048499072    0.029304801  
     39500   0.0049859978  -0.053676343    0             -0.049564535   -0.021155876  
     40000   0.0044122207  -0.055536294    0             -0.051897663   -0.038707753  
     40500   0.0060675403  -0.056512595    0             -0.05150887    -0.069773421  
     41000   0.0059290952  -0.060113852    0             -0.055224299   -0.041816888  
     41500   0.0052025531  -0.062844768    0             -0.058554373   -0.029523917  
     42000   0.0040636398  -0.064113398    0             -0.060762232    0.0085176741 
     42500   0.0038245028  -0.066179706    0             -0.063025749    0.040630192  
     43000   0.0042202097  -0.066185356    0             -0.062705072   -0.018090846  
     43500   0.0059235147  -0.068456311    0             -0.06357136     0.097905237  
     44000   0.0057469368  -0.069250601    0             -0.064511268   -0.03036076   
     44500   0.0054686152  -0.07221989     0             -0.067710081    0.05381066   
     45000   0.004015185   -0.072475106    0             -0.0691639     -0.0075457266 
     45500   0.0043174241  -0.074267792    0             -0.070707338    0.13087635   
     46000   0.003074159   -0.0762007      0             -0.07366553     0.16100952   
     46500   0.0028802009  -0.07660138     0             -0.074226162   -0.060337836  
     47000   0.002754501   -0.077416739    0             -0.075145182    0.01689256   
     47500   0.0040002103  -0.079550946    0             -0.076252088    0.10566367   
     48000   0.005219549   -0.080593137    0             -0.076288726   -0.045315537  
     48500   0.0055892071  -0.081333997    0             -0.07672474    -0.072509025  
     49000   0.0061109816  -0.082270408    0             -0.077230859    0.0055441393 
     49500   0.0098765865  -0.084805077    0             -0.076660142    0.015048539  
     50000   0.00760047    -0.087971146    0             -0.081703259    0.059393006  
     50500   0.0080913926  -0.089152486    0             -0.082479748   -0.044509042  
     51000   0.0066366963  -0.092037773    0             -0.086564681    0.051716488  
     51500   0.0065514731  -0.093656813    0             -0.088254003   -0.081833575  
     52000   0.0046680764  -0.093359516    0             -0.089509889    0.01064961   
     52500   0.0068934304  -0.096912016    0             -0.091227204    0.15524368   
     53000   0.0069132216  -0.096971188    0             -0.091270054   -0.071674318  
     53500   0.0053276317  -0.09898122     0             -0.094587677    0.068928258  
     54000   0.0061081313  -0.10171703     0             -0.096679826    0.074411146  
     54500   0.0050528015  -0.10353296     0             -0.099366056    0.076404687  
     55000   0.0043811654  -0.1034846      0             -0.099871582   -0.16046936   
     55500   0.0053520705  -0.10652651     0             -0.10211281     0.05336377   
     56000   0.0062772527  -0.10522862     0             -0.10005195    -0.13375352   
     56500   0.0044994132  -0.107286       0             -0.10357546    -0.070022721  
     57000   0.0056299872  -0.10774113     0             -0.10309824     0.0043301307 
     57500   0.0048882345  -0.10934957     0             -0.10531839     0.058877044  
     58000   0.0085139126  -0.10833247     0             -0.1013113     -0.071949997  
     58500   0.0056148439  -0.11154193     0             -0.10691153    -0.046290767  
     59000   0.0065990751  -0.11233284     0             -0.10689077    -0.034292866  
     59500   0.0059119188  -0.11511658     0             -0.11024119    -0.12761548   
     60000   0.0090353993  -0.11287854     0             -0.10542731     0.11284988   
     60500   0.009429919   -0.11164776     0             -0.10387118    -0.19109387   
     61000   0.0052616963  -0.1122543      0             -0.10791514    -0.13293434   
     61500   0.0064207974  -0.11559063     0             -0.11029558     0.089355758  
     62000   0.0060452554  -0.11369478     0             -0.10870943    -0.12736183   
     62500   0.0052899553  -0.11477483     0             -0.11041236     0.049598434  
     63000   0.0046060103  -0.11781024     0             -0.1140118     -0.055780406  
     63500   0.0053792755  -0.11825034     0             -0.11381421     0.2767918    
     64000   0.0094048171  -0.11953919     0             -0.11178331    -0.1529471    
     64500   0.0068672344  -0.11974588     0             -0.11408267     0.12133854   
     65000   0.0061763631  -0.12215672     0             -0.11706325    -0.011163407  
     65500   0.0064806597  -0.1263913      0             -0.12104689    -0.073655459  
     66000   0.0066435502  -0.12815841     0             -0.12267966     0.029689735  
     66500   0.0065206141  -0.1300005      0             -0.12462314     0.04702967   
     67000   0.0067886049  -0.13337174     0             -0.12777338    -0.028072572  
     67500   0.0087010682  -0.12835002     0             -0.1211745      0.082863414  
     68000   0.0073826324  -0.13361116     0             -0.12752292    -0.027580867  
     68500   0.0072532905  -0.13007462     0             -0.12409304    -0.23180251   
     69000   0.0087569336  -0.13208496     0             -0.12486337    -0.16884914   
     69500   0.0062815761  -0.13474425     0             -0.12956402    -0.12285546   
     70000   0.0097842086  -0.13521395     0             -0.12714519    -0.01777329   
     70500   0.0080319421  -0.1368483      0             -0.13022459    -0.0061293585 
     71000   0.01027725    -0.14097254     0             -0.13249718    -0.21186188   
     71500   0.012215185   -0.13785962     0             -0.12778611    -0.099156437  
     72000   0.010438909   -0.14424385     0             -0.13563518    -0.0224922    
     72500   0.010801951   -0.14220555     0             -0.13329749     0.031615481  
     73000   0.013498468   -0.14328253     0             -0.13215073    -0.11331543   
     73500   0.018444638   -0.14517055     0             -0.12995979     0.28482491   
     74000   0.010253096   -0.14467975     0             -0.13622432    -0.021776977  
     74500   0.007045425   -0.14597176     0             -0.1401616      0.04748009   
     75000   0.0063253852  -0.14900442     0             -0.14378806    -0.068460458  
     75500   0.0056039032  -0.15133433     0             -0.14671295     0.020233812  
     76000   0.0063605322  -0.15058896     0             -0.14534361    -0.046305977  
     76500   0.0066396554  -0.15363572     0             -0.14816018     0.075839999  
     77000   0.0056255101  -0.15349298     0             -0.14885379    -0.081272073  
     77500   0.0066338631  -0.15266835     0             -0.1471976     -0.080013759  
     78000   0.01000427    -0.15362214     0             -0.14537191    -0.02083211   
     78500   0.0080734958  -0.1569462      0             -0.15028822     0.098192909  
     79000   0.0071988397  -0.15769128     0             -0.15175461    -0.081886857  
     79500   0.0064402544  -0.16172718     0             -0.15641609     0.078790963  
     80000   0.0057001225  -0.16218341     0             -0.15748268    -0.14037287   
     80500   0.0055708254  -0.16297417     0             -0.15838007    -0.02726068   
     81000   0.0057199723  -0.16393984     0             -0.15922274    -0.10782715   
     81500   0.0091314335  -0.16467621     0             -0.15714578     0.070912462  
     82000   0.0074325404  -0.16261742     0             -0.15648802    -0.079641089  
     82500   0.0067175186  -0.1686063      0             -0.16306656    -0.10483524   
     83000   0.0058909373  -0.16779939     0             -0.1629413      0.0022700573 
     83500   0.0055749186  -0.16768138     0             -0.1630839      0.2189323    
     84000   0.0048607048  -0.16807001     0             -0.16406153    -0.065654151  
     84500   0.0068566174  -0.16991575     0             -0.16426129     0.016095639  
     85000   0.012105183   -0.16791743     0             -0.15793463    -0.029423662  
     85500   0.0086591447  -0.17042267     0             -0.16328172     0.01612244   
     86000   0.0072309676  -0.17604455     0             -0.17008138    -0.027315261  
     86500   0.0064001008  -0.17348556     0             -0.16820758    -0.0050993185 
     87000   0.0088507498  -0.17211397     0             -0.16481501    -0.052114597  
     87500   0.0096378274  -0.17093994     0             -0.1629919      0.027036655  
     88000   0.0096109749  -0.17309446     0             -0.16516857    -0.016549737  
     88500   0.016689622   -0.17661556     0             -0.16285211     0.16723801   
     89000   0.017064598   -0.1720449      0             -0.15797223    -0.032134759  
     89500   0.010278278   -0.1742634      0             -0.1657872     -0.1248599    
     90000   0.01156525    -0.17308636     0             -0.16354883    -0.013420145  
     90500   0.0089961976  -0.17365628     0             -0.16623738     0.003051032  
     91000   0.0078996789  -0.1763688      0             -0.16985416     0.16455745   
     91500   0.0099838105  -0.18025573     0             -0.17202237     0.16916204   
     92000   0.014611494   -0.18156451     0             -0.16951484     0.20139111   
     92500   0.019440331   -0.17966332     0             -0.16363144     0.039846682  
     93000   0.012998693   -0.17971193     0             -0.16899228     0.16053913   
     93500   0.0086302479  -0.1826181      0             -0.17550099    -0.17791954   
     94000   0.0073482921  -0.18633051     0             -0.18027059     0.018648536  
     94500   0.012984142   -0.18538083     0             -0.17467318    -0.0055223171 
     95000   0.0096027091  -0.18731423     0             -0.17939516     0.1731021    
     95500   0.008843983   -0.18808472     0             -0.18079134    -0.021584658  
     96000   0.011809035   -0.18769462     0             -0.17795606    -0.041226899  
     96500   0.0085969016  -0.18974848     0             -0.18265887     0.0089222101 
     97000   0.0074999945  -0.19122797     0             -0.18504294    -0.066338713  
     97500   0.0091551696  -0.19047553     0             -0.18292552     0.00011624337
     98000   0.0093264386  -0.19044201     0             -0.18275076     0.1556974    
     98500   0.010301016   -0.1876929      0             -0.17919795    -0.067694877  
     99000   0.010848647   -0.1900084      0             -0.18106183    -0.12632795   
     99500   0.012463597   -0.1930998      0             -0.18282143    -0.07960101   
    100000   0.013095972   -0.18859528     0             -0.17779541    -0.055184564  
    100500   0.01069493    -0.19015258     0             -0.18133278    -0.048788859  
    101000   0.0071073964  -0.19210847     0             -0.18624721     0.033085708  
    101500   0.0090981638  -0.19116863     0             -0.18366564     0.15712838   
    102000   0.010048017   -0.19428714     0             -0.18600083    -0.018528235  
    102500   0.010726849   -0.19385052     0             -0.1850044     -0.072813875  
    103000   0.0081914391  -0.1942779      0             -0.18752266    -0.12297678   
    103500   0.0073457439  -0.19448875     0             -0.18843093    -0.17649533   
    104000   0.00976364    -0.19458702     0             -0.18653523     0.10028826   
    104500   0.012158528   -0.19337009     0             -0.1833433      0.10117716   
    105000   0.010066343   -0.19182889     0             -0.18352746     0.069090305  
    105500   0.007466029   -0.19201763     0             -0.18586061    -0.082100771  
    106000   0.011154432   -0.19706068     0             -0.18786195    -0.029498372  
    106500   0.013077327   -0.19821322     0             -0.18742873     0.050953689  
    107000   0.013480826   -0.20167955     0             -0.1905623     -0.10363272   
    107500   0.013162254   -0.19753034     0             -0.18667582    -0.03003067   
    108000   0.012262677   -0.20305949     0             -0.19294682     0.17585096   
    108500   0.014995517   -0.20118819     0             -0.18882182    -0.061247362  
    109000   0.0092406228  -0.19970156     0             -0.19208109    -0.016109699  
    109500   0.0098281038  -0.20056907     0             -0.19246412    -0.039827467  
    110000   0.00821708    -0.19819429     0             -0.1914179      0.0012301285 
    110500   0.010781791   -0.19879897     0             -0.18990753     0.092582016  
    111000   0.0086504151  -0.20135718     0             -0.19422343     0.62454861   
    111500   0.017363555   -0.19748822     0             -0.183169       0.0019616256 
    112000   0.010398889   -0.20309392     0             -0.19451826     0.10228201   
    112500   0.013962516   -0.20237748     0             -0.190863       0.088056453  
    113000   0.015162739   -0.19644191     0             -0.18393763    -0.11234887   
    113500   0.013823113   -0.19857064     0             -0.18717112    -0.037681183  
    114000   0.011976866   -0.19867816     0             -0.18880119     0.067258506  
    114500   0.010208354   -0.20410373     0             -0.19568519    -0.038504152  
    115000   0.01250243    -0.20372657     0             -0.19341618    -0.17628822   
    115500   0.010939306   -0.20303446     0             -0.19401313     0.18440303   
    116000   0.011770873   -0.19968145     0             -0.18997435    -0.074055355  
    116500   0.014366682   -0.20222363     0             -0.19037584     0.1271598    
    117000   0.010683514   -0.20045911     0             -0.19164873     0.20225969   
    117500   0.012146332   -0.1980177      0             -0.18800097    -0.1461478    
    118000   0.014184161   -0.19935708     0             -0.18765981     0.030966134  
    118500   0.012140511   -0.19956913     0             -0.18955721     0.20333741   
    119000   0.010568237   -0.20247673     0             -0.19376141    -0.066760941  
    119500   0.013399855   -0.19853966     0             -0.18748919     0.058075506  
    120000   0.010272076   -0.20345411     0             -0.19498303    -0.065631133  
    120500   0.010482258   -0.20366903     0             -0.19502462     0.11935973   
    121000   0.011118898   -0.20455379     0             -0.19538436    -0.2345037    
    121500   0.0085864372  -0.21023276     0             -0.20315177    -0.10364415   
    122000   0.011136531   -0.2129353      0             -0.20375132     0.080591777  
    122500   0.011442151   -0.21107169     0             -0.20163568    -0.00062916082
    123000   0.010696972   -0.20892478     0             -0.20010329     0.03552923   
    123500   0.011918722   -0.21286884     0             -0.20303982    -0.13405996   
    124000   0.0086096689  -0.21479266     0             -0.20769251     0.068094532  
    124500   0.010802334   -0.20977455     0             -0.20086618     0.12089647   
    125000   0.0088295194  -0.2084713      0             -0.20118985     0.20623405   
    125500   0.011081638   -0.20674029     0             -0.19760159    -0.049667963  
    126000   0.010457585   -0.21082673     0             -0.20220267     0.036115993  
    126500   0.0079965749  -0.21190292     0             -0.20530838    -0.13973043   
    127000   0.01137919    -0.21029764     0             -0.20091356    -0.11093618   
    127500   0.010856892   -0.20955256     0             -0.2005992      0.0010232112 
    128000   0.01054106    -0.21060117     0             -0.20190826     0.023341418  
    128500   0.0097087819  -0.21122612     0             -0.20321957     0.19773146   
    129000   0.010158347   -0.21188221     0             -0.20350491    -0.0074689096 
    129500   0.0099149958  -0.21277918     0             -0.20460257     0.17308414   
    130000   0.012597953   -0.21224119     0             -0.20185202    -0.055119828  
    130500   0.014886891   -0.21700481     0             -0.20472802    -0.024657875  
    131000   0.012033425   -0.21498531     0             -0.2050617      0.098894465  
    131500   0.011528255   -0.2127011      0             -0.20319408    -0.23487244   
    132000   0.010288631   -0.21439735     0             -0.20591261    -0.0064844044 
    132500   0.01539014    -0.21331123     0             -0.20061943     0.095841481  
    133000   0.013077973   -0.21586379     0             -0.20507876    -0.031298514  
    133500   0.012516962   -0.21191665     0             -0.20159428    -0.089303831  
    134000   0.013448999   -0.21710199     0             -0.20601099     0.11083373   
    134500   0.011544589   -0.2150042      0             -0.20548371     0.2658358    
    135000   0.011923618   -0.21420793     0             -0.20437487     0.011201543  
    135500   0.012533972   -0.21384943     0             -0.20351303    -0.0015198258 
    136000   0.00983626    -0.21875364     0             -0.21064196     0.031570186  
    136500   0.010114193   -0.21943773     0             -0.21109685    -0.024480638  
    137000   0.0094380489  -0.21693328     0             -0.20914999    -0.017690924  
    137500   0.0096000935  -0.22248455     0             -0.21456763    -0.035652773  
    138000   0.011155399   -0.2181859      0             -0.20898637     0.075345905  
    138500   0.0094830925  -0.22021746     0             -0.21239703    -0.14197791   
    139000   0.011427503   -0.21703199     0             -0.20760806     0.09305867   
    139500   0.011538755   -0.21855128     0             -0.2090356     -0.13624425   
    140000   0.010679729   -0.21614023     0             -0.20733296    -0.18660483   
    140500   0.012254472   -0.22061002     0             -0.21050411    -0.021249804  
    141000   0.015174407   -0.22088616     0             -0.20837226    -0.22376829   
    141500   0.014427643   -0.22031536     0             -0.2084173      0.081031343  
    142000   0.0145723     -0.22033956     0             -0.20832221     0.013654897  
    142500   0.011604213   -0.22451665     0             -0.21494699     0.080204136  
    143000   0.010478657   -0.22595754     0             -0.21731609    -0.1032942    
    143500   0.031807748   -0.22101635     0             -0.19478542    -0.00016279847
    144000   0.026615525   -0.21593233     0             -0.19398327    -0.048996817  
    144500   0.021599697   -0.21999483     0             -0.20218218    -0.10709051   
    145000   0.014809694   -0.21396457     0             -0.20175145    -0.046268279  
    145500   0.013646069   -0.21977735     0             -0.20852383     0.084114184  
    146000   0.019101415   -0.21721885     0             -0.20146646     0.034972872  
    146500   0.015819141   -0.219156       0             -0.20611041     0.10241694   
    147000   0.018527245   -0.21602455     0             -0.20074567     0.073175263  
    147500   0.015274506   -0.21907205     0             -0.20647561    -0.21359144   
    148000   0.015291714   -0.21686275     0             -0.20425211    -0.075043285  
    148500   0.016483753   -0.21909677     0             -0.20550309    -0.011147003  
    149000   0.014101306   -0.21734508     0             -0.20571614    -0.1424782    
    149500   0.014062399   -0.22318695     0             -0.2115901     -0.1142739    
    150000   0.015735752   -0.22104993     0             -0.20807311     0.070543101  
    150500   0.011660794   -0.22448472     0             -0.2148684      0.11897216   
    151000   0.01215699    -0.22622759     0             -0.21620207     0.040552327  
    151500   0.013687424   -0.22456905     0             -0.21328142     0.071878463  
    152000   0.01304559    -0.2241665      0             -0.21340818     0.014360809  
    152500   0.012529132   -0.22273996     0             -0.21240754    -0.19007737   
    153000   0.017750708   -0.22769809     0             -0.21305959    -0.033597671  
    153500   0.015719504   -0.22431879     0             -0.21135537     0.08058915   
    154000   0.011687085   -0.22193908     0             -0.21230108     0.05291777   
    154500   0.014041151   -0.22538858     0             -0.21380925    -0.050767598  
    155000   0.021068662   -0.22581468     0             -0.20843997    -0.053585801  
    155500   0.015874441   -0.22813732     0             -0.21504613    -0.064516355  
    156000   0.012583195   -0.22000396     0             -0.20962696     0.072187538  
    156500   0.014696811   -0.22911255     0             -0.21699251    -0.060394585  
    157000   0.019393123   -0.22687714     0             -0.21088419    -0.060090636  
    157500   0.012959707   -0.22270566     0             -0.21201817     0.098697069  
    158000   0.011998218   -0.22571143     0             -0.21581684     0.094980387  
    158500   0.013960048   -0.22664249     0             -0.21513004    -0.08513547   
    159000   0.016092447   -0.22757223     0             -0.21430125    -0.33666697   
    159500   0.014479692   -0.23053205     0             -0.21859107     0.084571945  
    160000   0.013137118   -0.23186928     0             -0.22103548    -0.098489502  
    160500   0.020259728   -0.22925346     0             -0.21254585    -0.032354918  
    161000   0.014177937   -0.23124322     0             -0.21955109    -0.0084436761 
    161500   0.012907759   -0.23113269     0             -0.22048803     0.093890154  
    162000   0.017003307   -0.23171268     0             -0.21769054    -0.064242595  
    162500   0.012812405   -0.22984141     0             -0.21927539     0.11389059   
    163000   0.014873705   -0.23159004     0             -0.21932412    -0.12671116   
    163500   0.016699034   -0.22835097     0             -0.21457976     0.052906958  
    164000   0.017083076   -0.22927152     0             -0.2151836     -0.10263402   
    164500   0.016504908   -0.22717653     0             -0.21356541     0.06964238   
    165000   0.016155398   -0.23118643     0             -0.21786354     0.065769749  
    165500   0.017665967   -0.22310812     0             -0.20853951     0.078846242  
    166000   0.015805454   -0.22491268     0             -0.21187838     0.046619836  
    166500   0.013290205   -0.22784322     0             -0.21688317     0.031587098  
    167000   0.013627332   -0.22255724     0             -0.21131917     0.47003793   
    167500   0.011553601   -0.22727089     0             -0.21774297     0.12569785   
    168000   0.011907295   -0.22813472     0             -0.21831512     0.027939035  
    168500   0.012854606   -0.22779271     0             -0.21719189     0.044977249  
    169000   0.016307604   -0.225986       0             -0.21253759    -0.064719268  
    169500   0.018353765   -0.22409101     0             -0.20895519    -0.051401104  
    170000   0.024627164   -0.22283391     0             -0.2025246      0.095163014  
    170500   0.016043557   -0.2252026      0             -0.21197194     0.034126602  
    171000   0.014927797   -0.2333978      0             -0.22108728    -0.004532969  
    171500   0.014707014   -0.22721747     0             -0.21508902    -0.27450658   
    172000   0.015415869   -0.22502149     0             -0.21230847    -0.2013539    
    172500   0.0136909     -0.23251726     0             -0.22122677     0.17316987   
    173000   0.015705007   -0.2287964      0             -0.21584494     0.042657421  
    173500   0.015373979   -0.22773472     0             -0.21505624    -0.11568464   
    174000   0.013373549   -0.22993297     0             -0.21890419    -0.037209527  
    174500   0.01175074    -0.23265998     0             -0.22296949     0.057644652  
    175000   0.01841463    -0.23284747     0             -0.21766146     0.18758074   
    175500   0.025663879   -0.2260368      0             -0.20487254     0.034643699  
    176000   0.022772971   -0.22619371     0             -0.2074135     -0.12498565   
    176500   0.018548885   -0.22709871     0             -0.21180198     0.41551118   
    177000   0.020550801   -0.22959424     0             -0.21264659    -0.16258625   
    177500   0.018633045   -0.23094163     0             -0.21557549     0.023683351  
    178000   0.018761671   -0.23005748     0             -0.21458527    -0.11780652   
    178500   0.018282552   -0.23095986     0             -0.21588277    -0.14202833   
    179000   0.016630858   -0.22915833     0             -0.21544334    -0.072600621  
    179500   0.023243058   -0.22479031     0             -0.20562243    -0.015734513  
    180000   0.019574098   -0.22949934     0             -0.21335715     0.20794122   
    180500   0.016908722   -0.22745581     0             -0.21351168    -0.067287774  
    181000   0.014589197   -0.23039596     0             -0.21836467    -0.11432267   
    181500   0.021295951   -0.231752       0             -0.21418985     0.05143427   
    182000   0.020862973   -0.23127725     0             -0.21407216     0.1892276    
    182500   0.021917535   -0.23338079     0             -0.21530603     0.11189254   
    183000   0.016909302   -0.23113738     0             -0.21719277    -0.1831378    
    183500   0.014340347   -0.23119254     0             -0.21936647    -0.23517941   
    184000   0.014052074   -0.23309342     0             -0.22150508    -0.054104802  
    184500   0.020909633   -0.22956101     0             -0.21231744     0.23561886   
    185000   0.016847901   -0.23174087     0             -0.2178469     -0.036663427  
    185500   0.013781067   -0.23669585     0             -0.22533101    -0.13993436   
    186000   0.018706739   -0.23176953     0             -0.21634263     0.097492857  
    186500   0.025622833   -0.23482483     0             -0.21369442     0.065198487  
    187000   0.019839119   -0.23160459     0             -0.21524384     0.38299182   
    187500   0.0212483     -0.23454882     0             -0.21702597    -0.21808485   
    188000   0.016634382   -0.23410295     0             -0.22038506     0.21721945   
    188500   0.017353459   -0.23253831     0             -0.21822742    -0.053444704  
    189000   0.01359459    -0.23652365     0             -0.22531259    -0.12815832   
    189500   0.020508045   -0.23456251     0             -0.21765012     0.063421097  
    190000   0.015075357   -0.23640911     0             -0.2239769     -0.0094112619 
    190500   0.017100763   -0.23629321     0             -0.2221907      0.033434205  
    191000   0.016013605   -0.23388077     0             -0.22067482     0.11699506   
    191500   0.014059346   -0.2349339      0             -0.22333957    -0.15204198   
    192000   0.016718247   -0.23860765     0             -0.2248206      0.076422267  
    192500   0.018211477   -0.2419411      0             -0.22692262    -0.023502694  
    193000   0.021943205   -0.23667563     0             -0.21857971     0.11739237   
    193500   0.024187119   -0.23561146     0             -0.21566505    -0.12061705   
    194000   0.022793933   -0.23120938     0             -0.21241189    -0.067492746  
    194500   0.028184033   -0.23007799     0             -0.20683544    -0.17292581   
    195000   0.017593984   -0.23488033     0             -0.22037108    -0.097694331  
    195500   0.014084039   -0.2340241      0             -0.2224094     -0.095706118  
    196000   0.016925005   -0.23969196     0             -0.2257344     -0.078084608  
    196500   0.017078743   -0.23575357     0             -0.22166922     0.032278446  
    197000   0.016492983   -0.23472761     0             -0.22112633     0.053116455  
    197500   0.014505803   -0.23737305     0             -0.22541054     0.097664212  
    198000   0.014519724   -0.23843609     0             -0.22646209     0.27839208   
    198500   0.015750181   -0.23948237     0             -0.22649365    -0.0936765    
    199000   0.015112248   -0.23607505     0             -0.22361242     0.049814134  
    199500   0.01307719    -0.23390609     0             -0.22312171     0.027446038  
    200000   0.013031249   -0.24186107     0             -0.23111458     0.031277801  
    200500   0.02291326    -0.23918172     0             -0.22028582     0.0020552002 
    201000   0.016399069   -0.24143087     0             -0.22790704     0.042600608  
    201500   0.013931829   -0.24119156     0             -0.22970239     0.18137028   
    202000   0.017696341   -0.23940443     0             -0.22481077    -0.23720115   
    202500   0.018153786   -0.24011292     0             -0.22514202     0.054345757  
    203000   0.018379143   -0.24237905     0             -0.22722231    -0.021351921  
    203500   0.02333183    -0.24420586     0             -0.22496478     0.18778077   
    204000   0.024479169   -0.23727201     0             -0.21708475     0.17004515   
    204500   0.019622631   -0.23682897     0             -0.22064676    -0.11402394   
    205000   0.020836779   -0.23951227     0             -0.22232878    -0.068465129  
    205500   0.02083029    -0.24193888     0             -0.22476074     0.22803615   
    206000   0.017974558   -0.23911644     0             -0.22429334    -0.017847428  
    206500   0.019325446   -0.23601529     0             -0.22007815     0.097745705  
    207000   0.016957319   -0.23558742     0             -0.22160321     0.13559512   
    207500   0.02452576    -0.23679402     0             -0.21656834    -0.092200039  
    208000   0.020024333   -0.23477675     0             -0.21826326     0.32095792   
    208500   0.018240113   -0.23693858     0             -0.22189648     0.088946535  
    209000   0.029115255   -0.23793603     0             -0.21392552    -0.019874707  
    209500   0.027928656   -0.23495799     0             -0.21192604    -0.30040098   
    210000   0.024116466   -0.23426872     0             -0.21438056     0.040062809  
    210500   0.017757398   -0.23407676     0             -0.21943275    -0.019104309  
    211000   0.014991072   -0.22911177     0             -0.21674907     0.037941347  
    211500   0.021733953   -0.23607266     0             -0.21814929    -0.02264749   
    212000   0.018160773   -0.23334581     0             -0.21836914    -0.045013595  
    212500   0.018845776   -0.2360668      0             -0.22052523    -0.29409345   
    213000   0.027882747   -0.23248151     0             -0.20948742    -0.062918797  
    213500   0.021372854   -0.23201367     0             -0.2143881      0.11325497   
    214000   0.022959869   -0.23475199     0             -0.21581765    -0.17977548   
    214500   0.02115547    -0.23097833     0             -0.21353203     0.26283143   
    215000   0.021160019   -0.23057369     0             -0.21312364     0.039734221  
    215500   0.01768409    -0.23245515     0             -0.21787159    -0.11964424   
    216000   0.019184101   -0.23527624     0             -0.21945567    -0.042227896  
    216500   0.021927343   -0.23251882     0             -0.21443598    -0.085273233  
    217000   0.018035364   -0.23414468     0             -0.21927144     0.30514573   
    217500   0.022067897   -0.2370747      0             -0.21887595    -0.091367721  
    218000   0.01716493    -0.2363286      0             -0.22217318    -0.0094948983 
    218500   0.016320056   -0.24064859     0             -0.22718991     0.034539356  
    219000   0.014735408   -0.23186626     0             -0.2197144      0.044718675  
    219500   0.013198582   -0.23556925     0             -0.22468476     0.039403065  
    220000   0.01440826    -0.2398745      0             -0.22799243     0.023722054  
    220500   0.017139972   -0.23616808     0             -0.22203324    -0.12990088   
    221000   0.019627656   -0.2349315      0             -0.21874514    -0.082109414  
    221500   0.018694878   -0.23539181     0             -0.21997468     0.13150641   
    222000   0.022354319   -0.23644811     0             -0.21801315    -0.097299321  
    222500   0.023707824   -0.23664825     0             -0.21709709     0.02471109   
    223000   0.022680651   -0.2405565      0             -0.22185243     0.056843836  
    223500   0.018345297   -0.23491945     0             -0.21979062    -0.078566089  
    224000   0.020283669   -0.23389719     0             -0.21716984     0.018734191  
    224500   0.021900963   -0.23959276     0             -0.22153167     0.10709444   
    225000   0.018716612   -0.23449332     0             -0.21905827     0.04504499   
    225500   0.018809213   -0.23739442     0             -0.221883      -0.013475443  
    226000   0.016277446   -0.23888745     0             -0.22546391    -0.013478214  
    226500   0.019468406   -0.23532637     0             -0.21927134     0.044870583  
    227000   0.023409016   -0.23538783     0             -0.21608309    -0.093835534  
    227500   0.025033387   -0.23408956     0             -0.21344525     0.21980008   
    228000   0.019703468   -0.23538845     0             -0.21913958    -0.099231115  
    228500   0.018048542   -0.24022166     0             -0.22533755     0.14009352   
    229000   0.019040367   -0.2376274      0             -0.22192537    -0.030842094  
    229500   0.020342284   -0.23879121     0             -0.22201552    -0.17936907   
    230000   0.021049845   -0.24210466     0             -0.22474547     0.12304448   
    230500   0.017396707   -0.23976914     0             -0.22542258    -0.066628763  
    231000   0.016177452   -0.23941368     0             -0.2260726      0.099119398  
    231500   0.015147034   -0.24295815     0             -0.23046683    -0.38395839   
    232000   0.020126336   -0.24176873     0             -0.22517113    -0.060183602  
    232500   0.023089129   -0.23682183     0             -0.2177809      0.24826199   
    233000   0.018785464   -0.23886022     0             -0.22336839    -0.02973745   
    233500   0.020550069   -0.23898372     0             -0.22203667     0.10195701   
    234000   0.019848073   -0.24339316     0             -0.22702503     0.049292391  
    234500   0.021015936   -0.24558253     0             -0.2282513     -0.068540683  
    235000   0.025196378   -0.23964179     0             -0.21886306    -0.14729007   
    235500   0.020792605   -0.24014201     0             -0.22299495     0.12909485   
    236000   0.02425775    -0.24352209     0             -0.22351742     0.1489495    
    236500   0.027114578   -0.23775622     0             -0.21539561    -0.0051048738 
    237000   0.021973774   -0.24020975     0             -0.22208861    -0.16883647   
    237500   0.024348465   -0.23807226     0             -0.21799279    -0.048362405  
    238000   0.024110377   -0.23378468     0             -0.21390155     0.11819588   
    238500   0.017962874   -0.2349809      0             -0.22016744     0.25946922   
    239000   0.01994503    -0.23876548     0             -0.22231739    -0.25916374   
    239500   0.018166867   -0.2381883      0             -0.22320661    -0.10384596   
    240000   0.024074164   -0.23706052     0             -0.21720725     0.093103161  
    240500   0.02934042    -0.237279       0             -0.21308281    -0.27300909   
    241000   0.023621334   -0.23663613     0             -0.2171563      0.33829975   
    241500   0.019328805   -0.23607122     0             -0.22013131     0.16928336   
    242000   0.018975402   -0.24046829     0             -0.22481983    -0.09320428   
    242500   0.016921885   -0.23987702     0             -0.22592203    -0.054756393  
    243000   0.020702644   -0.24008376     0             -0.22301089     0.01789421   
    243500   0.022757393   -0.23805514     0             -0.21928777     0.1690109    
    244000   0.020758242   -0.23793736     0             -0.22081864     0.10890643   
    244500   0.025538298   -0.24236801     0             -0.22130731     0.06531339   
    245000   0.020912424   -0.23705294     0             -0.21980707    -0.13599312   
    245500   0.023476031   -0.24005295     0             -0.22069294    -0.063947046  
    246000   0.021431454   -0.24002612     0             -0.22235222    -0.037982174  
    246500   0.018735486   -0.24281987     0             -0.22736926    -0.18124203   
    247000   0.016937883   -0.24054281     0             -0.22657463    -0.12588338   
    247500   0.016896306   -0.23963244     0             -0.22569855    -0.27599155   
    248000   0.013805952   -0.24074783     0             -0.22936246     0.10341635   
    248500   0.015133212   -0.24056654     0             -0.22808662    -0.045237509  
    249000   0.017780433   -0.24123607     0             -0.22657306    -0.14921868   
    249500   0.016509084   -0.24043126     0             -0.2268167      0.37084288   
    250000   0.018200766   -0.24417768     0             -0.22916804     0.097934122  
    250500   0.021335555   -0.23932983     0             -0.22173501    -0.012000356  
    251000   0.019388149   -0.24205894     0             -0.22607009    -0.093411743  
    251500   0.021266593   -0.23786206     0             -0.22032411     0.072121336  
    252000   0.023165196   -0.23726144     0             -0.21815777     0.13927335   
    252500   0.025110505   -0.23809853     0             -0.21739063    -0.05256279   
    253000   0.019637232   -0.23828579     0             -0.22209153     0.018964516  
    253500   0.019338769   -0.23862441     0             -0.22267629     0.256728     
    254000   0.016236325   -0.2355465      0             -0.22215687     0.012045153  
    254500   0.01937927    -0.2368281      0             -0.22084657     0.021663221  
    255000   0.018877426   -0.23802515     0             -0.22245748     0.19927647   
    255500   0.026320567   -0.2326225      0             -0.21091669     0.14833229   
    256000   0.022390712   -0.23103842     0             -0.21257345    -0.069634487  
    256500   0.021943097   -0.2362389      0             -0.21814306     0.080087069  
    257000   0.020691168   -0.23986722     0             -0.22280381    -0.024354769  
    257500   0.022022733   -0.23660187     0             -0.21844036    -0.049237054  
    258000   0.024637221   -0.23479826     0             -0.21448066    -0.12906933   
    258500   0.023085818   -0.23395611     0             -0.21491791     0.22119167   
    259000   0.022002852   -0.23266935     0             -0.21452423    -0.12042883   
    259500   0.026101947   -0.23630435     0             -0.21477883    -0.27308117   
    260000   0.02357322    -0.23413553     0             -0.21469538    -0.11965638   
    260500   0.023804328   -0.23543219     0             -0.21580145    -0.20060693   
    261000   0.020042721   -0.23353345     0             -0.2170048      0.15401122   
    261500   0.029750071   -0.23576455     0             -0.21123053    -0.13504229   
    262000   0.023115622   -0.23348498     0             -0.2144222      0.088016858  
    262500   0.024277855   -0.2331052      0             -0.21308396    -0.13005058   
    263000   0.033289446   -0.23161019     0             -0.20415735    -0.018312333  
    263500   0.028475225   -0.22859523     0             -0.20511254    -0.053817763  
    264000   0.031286491   -0.23288133     0             -0.20708026    -0.15824502   
    264500   0.022789647   -0.23355925     0             -0.21476529    -0.12400014   
    265000   0.020711014   -0.23376651     0             -0.21668673     0.013029845  
    265500   0.023400191   -0.23541333     0             -0.21611587    -0.024649457  
    266000   0.030571073   -0.2401359      0             -0.21492482     0.042374493  
    266500   0.038739804   -0.23511536     0             -0.20316776     0.3686819    
    267000   0.033027287   -0.23332951     0             -0.20609287    -0.17380716   
    267500   0.027240423   -0.23386532     0             -0.21140094     0.017694099  
    268000   0.028125331   -0.23204411     0             -0.20884997     0.26919048   
    268500   0.025480362   -0.23449641     0             -0.21348349     0.1050357    
    269000   0.032255291   -0.23132353     0             -0.20472352    -0.30090598   
    269500   0.023319022   -0.23230932     0             -0.2130788     -0.21116325   
    270000   0.022109116   -0.23691292     0             -0.21868017     0.19090315   
    270500   0.020512837   -0.23656949     0             -0.21965315     0.31575875   
    271000   0.017063893   -0.23774963     0             -0.22367753    -0.16446437   
    271500   0.017774727   -0.23569309     0             -0.22103479     0.061307688  
    272000   0.016727812   -0.23823235     0             -0.22443741     0.083418706  
    272500   0.023543004   -0.23636457     0             -0.21694933    -0.0033538826 
    273000   0.018625466   -0.24127533     0             -0.22591544     0.062823468  
    273500   0.019647441   -0.23555558     0             -0.2193529     -0.30746955   
    274000   0.024388787   -0.24111959     0             -0.22100686    -0.059367324  
    274500   0.025800318   -0.23965997     0             -0.2183832      0.29730332   
    275000   0.028910364   -0.23734381     0             -0.21350227     0.063068745  
    275500   0.022029803   -0.24115376     0             -0.22298642    -0.063772819  
    276000   0.039896064   -0.23508909     0             -0.20218796    -0.05824254   
    276500   0.035858586   -0.2363049      0             -0.20673336     0.23294281   
    277000   0.027509098   -0.23738209     0             -0.21469613    -0.40604341   
    277500   0.028095106   -0.23522142     0             -0.2120522     -0.054061008  
    278000   0.024937635   -0.23856348     0             -0.21799813     0.17513786   
    278500   0.024314325   -0.23871428     0             -0.21866296     0.11694179   
    279000   0.026644129   -0.24067691     0             -0.21870427     0.20696101   
    279500   0.024276375   -0.23600807     0             -0.21598804    -0.26866666   
    280000   0.022728458   -0.23911631     0             -0.22037281    -0.14143772   
    280500   0.021486999   -0.23852732     0             -0.22080762    -0.024624195  
    281000   0.018511127   -0.24065759     0             -0.225392       0.21117393   
    281500   0.01956645    -0.24188363     0             -0.22574775    -0.17664707   
    282000   0.02244376    -0.24096808     0             -0.22245936    -0.21300428   
    282500   0.026425126   -0.23753356     0             -0.21574153     0.22750918   
    283000   0.028058083   -0.23417072     0             -0.21103203     0.12839325   
    283500   0.027515335   -0.24104462     0             -0.21835352     0.11925156   
    284000   0.027058779   -0.2396032      0             -0.21728861    -0.22618676   
    284500   0.021070482   -0.23882727     0             -0.22145106     0.071738813  
    285000   0.025000788   -0.23424378     0             -0.21362636     0.19600404   
    285500   0.019943048   -0.24188427     0             -0.22543781     0.19815835   
    286000   0.02158938    -0.23959673     0             -0.22179259    -0.017053216  
    286500   0.026654034   -0.23861021     0             -0.2166294      0.1931175    
    287000   0.030929598   -0.2404124      0             -0.21490566     0.19784455   
    287500   0.023511264   -0.23808436     0             -0.2186953     -0.10476956   
    288000   0.020052516   -0.2384884      0             -0.22195167     0.028374519  
    288500   0.028182944   -0.24351943     0             -0.22027777    -0.010520333  
    289000   0.040350359   -0.23469101     0             -0.20141524    -0.31335996   
    289500   0.031360222   -0.23604887     0             -0.210187      -0.10293539   
    290000   0.026520275   -0.23792466     0             -0.21605415     0.20729215   
    290500   0.027544412   -0.23746661     0             -0.21475153     0.028964505  
    291000   0.029983775   -0.23905292     0             -0.21432616     0.30050729   
    291500   0.031504234   -0.23389632     0             -0.20791569    -0.0013437345 
    292000   0.027091211   -0.2401918      0             -0.21785046     0.00055364773
    292500   0.026300456   -0.23567245     0             -0.21398323    -0.18656854   
    293000   0.023000419   -0.23943772     0             -0.22046994    -0.30175403   
    293500   0.024436481   -0.23939295     0             -0.21924089    -0.082558274  
    294000   0.022215303   -0.24090103     0             -0.22258071    -0.021980239  
    294500   0.027399893   -0.23682912     0             -0.21423322    -0.15276177   
    295000   0.029913586   -0.23904446     0             -0.21437559     0.1439833    
    295500   0.030016406   -0.23738595     0             -0.21263229    -0.27906118   
    296000   0.021221817   -0.23762697     0             -0.22012595     0.19953149   
    296500   0.020368615   -0.24092995     0             -0.22413254    -0.0054539492 
    297000   0.019818849   -0.24585081     0             -0.22950678     0.033794368  
    297500   0.024496247   -0.23717961     0             -0.21697826     0.074964585  
    298000   0.02254164    -0.24071953     0             -0.22213009    -0.14410359   
    298500   0.020102838   -0.24185984     0             -0.22528161    -0.053933397  
    299000   0.025173027   -0.24526473     0             -0.22450526     0.36481082   
    299500   0.019918056   -0.24392532     0             -0.22749948     0.05665322   
    300000   0.019616328   -0.24574663     0             -0.22956961     0.14572122   
    300500   0.022519649   -0.24400539     0             -0.22543408    -0.025244338  
    301000   0.019241633   -0.24679829     0             -0.23093027     0.14504392   
    301500   0.03187141    -0.24038921     0             -0.21410578     0.12404038   
    302000   0.02388396    -0.2410076      0             -0.22131119     0.18995542   
    302500   0.027783415   -0.24111125     0             -0.21819908    -0.1337389    
    303000   0.025777301   -0.24182898     0             -0.22057118     0.050815281  
    303500   0.024331072   -0.2411017      0             -0.22103657    -0.002428695  
    304000   0.024339649   -0.24363761     0             -0.22356541    -0.1277243    
    304500   0.022189622   -0.24453799     0             -0.22623885    -0.18333791   
    305000   0.026500784   -0.24061837     0             -0.21876394     0.22689432   
    305500   0.023934947   -0.24483805     0             -0.2250996      0.083069203  
    306000   0.033140698   -0.24057023     0             -0.21324006     0.10903365   
    306500   0.034201569   -0.24525028     0             -0.21704524    -0.15321018   
    307000   0.030133103   -0.23962921     0             -0.21477931    -0.13477376   
    307500   0.029620738   -0.23989865     0             -0.21547129     0.069534726  
    308000   0.026532857   -0.24257742     0             -0.22069654     0.16777632   
    308500   0.024237517   -0.23698435     0             -0.21699637    -0.14861416   
    309000   0.020132299   -0.24272731     0             -0.22612479     0.017930222  
    309500   0.02411365    -0.24017326     0             -0.22028743    -0.36564846   
    310000   0.023596953   -0.24257564     0             -0.22311592    -0.1653619    
    310500   0.022836929   -0.24433336     0             -0.2255004     -0.085289561  
    311000   0.024927323   -0.23692782     0             -0.21637098    -0.12580133   
    311500   0.022789105   -0.23968888     0             -0.22089536     0.25198888   
    312000   0.030476803   -0.2377299      0             -0.21259656    -0.067668316  
    312500   0.024612503   -0.24071004     0             -0.22041282     0.031293912  
    313000   0.027565322   -0.2386234      0             -0.21589107    -0.099273737  
    313500   0.022868369   -0.24003734     0             -0.22117846     0.24235089   
    314000   0.022631801   -0.23980342     0             -0.22113963    -0.40721986   
    314500   0.022670079   -0.23893978     0             -0.22024442     0.017954744  
    315000   0.024913146   -0.2407551      0             -0.22020995     0.073014063  
    315500   0.031916013   -0.23657345     0             -0.21025323    -0.14412395   
    316000   0.024652128   -0.23536283     0             -0.21503294     0.23057989   
    316500   0.02192258    -0.23560106     0             -0.21752214    -0.085088252  
    317000   0.029913029   -0.23696453     0             -0.21229613     0.43003038   
    317500   0.029286939   -0.2343638      0             -0.2102117      0.15209082   
    318000   0.030610275   -0.23242937     0             -0.20718596    -0.33277365   
    318500   0.029609804   -0.23230119     0             -0.20788284    -0.02869961   
    319000   0.027922264   -0.23159133     0             -0.20856465    -0.10308927   
    319500   0.029996735   -0.23383654     0             -0.2090991      0.19311675   
    320000   0.027867538   -0.23448333     0             -0.21150178     0.17304731   
    320500   0.031576103   -0.23199587     0             -0.20595597     0.38140933   
    321000   0.029016198   -0.23361326     0             -0.20968444     0.082874003  
    321500   0.026504672   -0.2302189      0             -0.20836126     0.04846194   
    322000   0.028402055   -0.22965756     0             -0.20623521     0.14463693   
    322500   0.026440099   -0.22987672     0             -0.20807234    -0.31717763   
    323000   0.028379502   -0.22764727     0             -0.20424351     0.14525278   
    323500   0.025686662   -0.22679011     0             -0.20560706     0.0071857442 
    324000   0.02328646    -0.23285736     0             -0.2136537      0.0040179019 
    324500   0.030635399   -0.22945924     0             -0.20419511    -0.091541314  
    325000   0.025319995   -0.23133358     0             -0.21045291    -0.049740736  
    325500   0.02403477    -0.23469459     0             -0.21487381     0.13053404   
    326000   0.024693028   -0.23472146     0             -0.21435783     0.073309522  
    326500   0.021547506   -0.23577919     0             -0.21800958    -0.012483189  
    327000   0.02548894    -0.23254032     0             -0.21152033     0.30342479   
    327500   0.022450645   -0.23695698     0             -0.21844258     0.17153716   
    328000   0.02970475    -0.23940459     0             -0.21490794     0.22891593   
    328500   0.031530257   -0.24043965     0             -0.21443756     0.0018729836 
    329000   0.029560636   -0.24078728     0             -0.21640948     0.080227672  
    329500   0.027808349   -0.24080179     0             -0.21786905    -0.067025319  
    330000   0.032205009   -0.24187353     0             -0.21531499     0.11846148   
    330500   0.0300966     -0.23596399     0             -0.2111442      0.085971508  
    331000   0.027726877   -0.23991741     0             -0.21705185     0.048528172  
    331500   0.0397376     -0.24315299     0             -0.21038254    -0.051579324  
    332000   0.036556879   -0.23798355     0             -0.20783615     0.028341219  
    332500   0.03370473    -0.23534298     0             -0.20754766    -0.099027377  
    333000   0.032843158   -0.23926235     0             -0.21217755    -0.067118058  
    333500   0.02607837    -0.24202202     0             -0.22051595     0.046487737  
    334000   0.024027124   -0.23930225     0             -0.21948778    -0.20456282   
    334500   0.033263351   -0.23829654     0             -0.21086522    -0.21156174   
    335000   0.033613891   -0.23514639     0             -0.20742599     0.13178834   
    335500   0.03106649    -0.24083054     0             -0.2152109      0.16099057   
    336000   0.026514264   -0.23478322     0             -0.21291767     0.047244684  
    336500   0.025268922   -0.23893691     0             -0.21809836     0.039723532  
    337000   0.022917823   -0.2365519      0             -0.21765223    -0.0087604781 
    337500   0.028439616   -0.23909854     0             -0.21564521    -0.086443626  
    338000   0.038787507   -0.23568176     0             -0.20369482    -0.15120893   
    338500   0.03510116    -0.23436764     0             -0.20542073     0.16011833   
    339000   0.028997979   -0.23388481     0             -0.20997101     0.064239968  
    339500   0.023933306   -0.23646293     0             -0.21672583    -0.078059505  
    340000   0.0223894     -0.24046569     0             -0.2220018      0.12538724   
    340500   0.02349331    -0.23651921     0             -0.21714496     0.060376166  
    341000   0.026659262   -0.23567915     0             -0.21369403    -0.30351076   
    341500   0.028067003   -0.23282699     0             -0.20968094     0.027443101  
    342000   0.027477198   -0.23312667     0             -0.21046702    -0.10847326   
    342500   0.029172253   -0.23231419     0             -0.20825668     0.14316266   
    343000   0.033102337   -0.23295003     0             -0.20565149     0.20573139   
    343500   0.02861232    -0.23076967     0             -0.20717391     0.14928785   
    344000   0.022805017   -0.23738377     0             -0.21857714     0.41372828   
    344500   0.026552387   -0.23545028     0             -0.2135533      0.1936953    
    345000   0.024715662   -0.23441021     0             -0.21402792    -0.12540825   
    345500   0.027390135   -0.23216231     0             -0.20957446    -0.049195055  
    346000   0.030068875   -0.23867228     0             -0.21387535    -0.27198111   
    346500   0.028368558   -0.23021585     0             -0.20682112    -0.08872351   
    347000   0.029752249   -0.23029785     0             -0.20576203    -0.26638915   
    347500   0.025650977   -0.22850098     0             -0.20734736     0.10603822   
    348000   0.021788369   -0.22827175     0             -0.21030351    -0.29980117   
    348500   0.021988655   -0.23074037     0             -0.21260696    -0.16617126   
    349000   0.020989956   -0.23114136     0             -0.21383155    -0.099498131  
    349500   0.026616693   -0.23428756     0             -0.21233754     0.19107466   
    350000   0.029411925   -0.23333875     0             -0.20908358     0.19187335   
    350500   0.032586769   -0.23285894     0             -0.20598558    -0.010785327  
    351000   0.03451184    -0.23089105     0             -0.20243013    -0.086693063  
    351500   0.036173616   -0.23311147     0             -0.20328014    -0.095314433  
    352000   0.02821748    -0.22975164     0             -0.2064815     -0.27574451   
    352500   0.035708485   -0.22980652     0             -0.20035876    -0.3065372    
    353000   0.031442817   -0.22810046     0             -0.20217048     0.035745852  
    353500   0.031235484   -0.22716472     0             -0.20140572     0.24746238   
    354000   0.034562818   -0.2321926      0             -0.20368964    -0.29896501   
    354500   0.035447908   -0.22817051     0             -0.19893765    -0.11484285   
    355000   0.029688126   -0.23502961     0             -0.21054667     0.50308993   
    355500   0.033332331   -0.23302628     0             -0.20553807     0.11758213   
    356000   0.026634243   -0.23209021     0             -0.21012572    -0.065685549  
    356500   0.025134308   -0.23314459     0             -0.21241705    -0.074375796  
    357000   0.02563655    -0.23227212     0             -0.2111304     -0.0067788441 
    357500   0.022979327   -0.2380551      0             -0.21910471     0.020464757  
    358000   0.022604688   -0.24025892     0             -0.22161749     0.15851104   
    358500   0.025025723   -0.24020825     0             -0.21957026    -0.040917115  
    359000   0.026877544   -0.24192882     0             -0.21976369     0.11854455   
    359500   0.027925949   -0.23561327     0             -0.21258355    -0.36256242   
    360000   0.03745489    -0.23992417     0             -0.20903621    -0.0061472767 
    360500   0.033516852   -0.23970882     0             -0.21206844     0.45396506   
    361000   0.037901131   -0.22995474     0             -0.19869877    -0.0065882525 
    361500   0.042536748   -0.23513943     0             -0.20006061    -0.078873856  
    362000   0.031173097   -0.2389205      0             -0.21321295     0.048677491  
    362500   0.028401248   -0.23685617     0             -0.21343448     0.22827612   
    363000   0.030220126   -0.23832623     0             -0.21340457    -0.068343544  
    363500   0.029623303   -0.23635091     0             -0.21192143     0.056659725  
    364000   0.029219297   -0.23467007     0             -0.21057376     0.08930867   
    364500   0.02729327    -0.23441026     0             -0.21190229    -0.039289708  
    365000   0.024550272   -0.23636087     0             -0.21611497     0.076174637  
    365500   0.024740247   -0.23890228     0             -0.21849971    -0.3427984    
    366000   0.027746264   -0.23744438     0             -0.21456284     0.18156116   
    366500   0.024201507   -0.23777258     0             -0.21781429    -0.1448606    
    367000   0.036698799   -0.23610496     0             -0.20584052     0.12253138   
    367500   0.028985355   -0.2364105      0             -0.21250712     0.060836121  
    368000   0.024794106   -0.23753006     0             -0.21708308     0.059441249  
    368500   0.029840113   -0.23673915     0             -0.21213087     0.32931824   
    369000   0.030900069   -0.23413324     0             -0.20865085     0.49601911   
    369500   0.037736126   -0.23672479     0             -0.20560489     0.088798406  
    370000   0.033961869   -0.23693579     0             -0.20892841     0.017965339  
    370500   0.034124313   -0.2338937      0             -0.20575236    -0.095899633  
    371000   0.033349716   -0.23504242     0             -0.20753988    -0.029172619  
    371500   0.034322094   -0.23607437     0             -0.20776993     0.037133827  
    372000   0.03066378    -0.23722237     0             -0.21193484    -0.20420756   
    372500   0.028316434   -0.23625914     0             -0.21290739     0.0081674919 
    373000   0.024401394   -0.23646476     0             -0.21634164     0.20832666   
    373500   0.029008824   -0.24127066     0             -0.21734792    -0.18515949   
    374000   0.03561415    -0.23766009     0             -0.20829013     0.14350824   
    374500   0.033747578   -0.24328683     0             -0.21545618     0.013516268  
    375000   0.04669963    -0.23656521     0             -0.19805338    -0.095032608  
    375500   0.035878704   -0.23523785     0             -0.20564973    -0.039044268  
    376000   0.038971958   -0.23668631     0             -0.20454726     0.091034465  
    376500   0.031223675   -0.22912427     0             -0.20337501     0.11138158   
    377000   0.032094943   -0.23326309     0             -0.20679532    -0.041467941  
    377500   0.031310919   -0.23356735     0             -0.20774614    -0.022114828  
    378000   0.030910717   -0.23405018     0             -0.20855901     0.32564101   
    378500   0.027273698   -0.23736256     0             -0.21487073    -0.2414931    
    379000   0.041413928   -0.23266024     0             -0.19850738     0.51126104   
    379500   0.04129625    -0.2313047      0             -0.19724888    -0.025890941  
    380000   0.030690748   -0.23870132     0             -0.21339155    -0.035148974  
    380500   0.034207639   -0.23497201     0             -0.20676196     0.1341932    
    381000   0.031494315   -0.23155033     0             -0.20557788     0.028214225  
    381500   0.02820879    -0.23172465     0             -0.20846168    -0.064264675  
    382000   0.024016892   -0.2344073      0             -0.21460126     0.087202519  
    382500   0.027965181   -0.23359721     0             -0.21053514    -0.069837165  
    383000   0.03263384    -0.23390765     0             -0.20699547     0.18922033   
    383500   0.027804958   -0.23699676     0             -0.21406681    -0.039096617  
    384000   0.02368132    -0.23740529     0             -0.21787599    -0.018162974  
[...]
   1896500   0.069040466   -0.22018397     0             -0.1632483     -0.4281554    
   1897000   0.060889004   -0.22408224     0             -0.17386884     0.30686616   
   1897500   0.068734317   -0.21627581     0             -0.15959261    -0.0035529729 
   1898000   0.061363151   -0.21985493     0             -0.16925052    -0.36470669   
   1898500   0.068062397   -0.21401121     0             -0.15788212    -0.3692405    
   1899000   0.061830509   -0.22202552     0             -0.17103569     0.59402919   
   1899500   0.069689934   -0.22018602     0             -0.16271475    -0.27709982   
   1900000   0.069530211   -0.22016049     0             -0.16282093    -0.41135664   
   1900500   0.063414873   -0.21942127     0             -0.16712486    -0.77984028   
   1901000   0.070470159   -0.22247306     0             -0.16435836    -0.060896726  
   1901500   0.065989052   -0.22290172     0             -0.16848246    -0.45843936   
   1902000   0.065221895   -0.21810024     0             -0.16431364    -0.086330254  
   1902500   0.071509892   -0.21772425     0             -0.15875211     0.48836566   
   1903000   0.063140345   -0.22350592     0             -0.1714359      0.0039913406 
   1903500   0.063782285   -0.22538652     0             -0.17278712     0.31914902   
   1904000   0.064693064   -0.22135086     0             -0.16800037     0.46497988   
   1904500   0.068377648   -0.22130419     0             -0.16491512     0.30331982   
   1905000   0.067228433   -0.21419081     0             -0.15874946     0.21038248   
   1905500   0.062802154   -0.21858685     0             -0.16679573    -0.011797017  
   1906000   0.059492377   -0.21599339     0             -0.16693175    -0.111643     
   1906500   0.059967609   -0.21855301     0             -0.16909946     0.23094752   
   1907000   0.05977095    -0.22049781     0             -0.17120644    -0.13628659   
   1907500   0.059967472   -0.21910534     0             -0.1696519     -0.44236443   
   1908000   0.063844377   -0.22365692     0             -0.17100631     0.085220735  
   1908500   0.061661093   -0.22039411     0             -0.16954399    -0.08177262   
   1909000   0.061626235   -0.22127756     0             -0.17045619    -0.21681167   
   1909500   0.067871732   -0.22071332     0             -0.16474147    -0.21132875   
   1910000   0.069834551   -0.22223919     0             -0.16464866    -0.16119867   
   1910500   0.071717481   -0.21948906     0             -0.16034573    -0.21425377   
   1911000   0.072564191   -0.21998886     0             -0.16014728    -0.16940935   
   1911500   0.076253309   -0.21928263     0             -0.15639874     0.30682875   
   1912000   0.076690411   -0.21910425     0             -0.15585989    -0.037041538  
   1912500   0.067097503   -0.21697941     0             -0.16164604    -0.0013473092 
   1913000   0.066986772   -0.21968908     0             -0.16444703    -0.19144261   
   1913500   0.069674947   -0.22245812     0             -0.16499921     0.085583344  
   1914000   0.067157401   -0.21812334     0             -0.16274058     0.34121179   
   1914500   0.063819689   -0.22247863     0             -0.16984838    -0.4019798    
   1915000   0.067600764   -0.22393004     0             -0.16818165    -0.41329487   
   1915500   0.071204402   -0.22048576     0             -0.16176555    -0.40425837   
   1916000   0.079752228   -0.21861139     0             -0.15284203     0.22294299   
   1916500   0.067113883   -0.21705552     0             -0.16170864     0.11398651   
   1917000   0.071912022   -0.21712117     0             -0.15781741    -0.13824212   
   1917500   0.068309287   -0.2133958      0             -0.15706311     0.10713756   
   1918000   0.066424196   -0.21574967     0             -0.16097156     0.34022578   
   1918500   0.062016898   -0.21512044     0             -0.1639769      0.041200351  
   1919000   0.05759532    -0.22046975     0             -0.17297256    -0.50618761   
   1919500   0.06169138    -0.2286098      0             -0.17773471     0.11900651   
   1920000   0.065584227   -0.21655487     0             -0.16246945     0.14122388   
   1920500   0.06588448    -0.22194002     0             -0.167607       0.35631067   
   1921000   0.067419744   -0.2193841      0             -0.16378499     0.16347988   
   1921500   0.068563846   -0.21904665     0             -0.16250403    -0.032434983  
   1922000   0.061881402   -0.22063586     0             -0.16960405    -0.28903001   
   1922500   0.0690835     -0.22121429     0             -0.16424313    -0.046983289  
   1923000   0.061494762   -0.21770779     0             -0.16699484    -0.051677631  
   1923500   0.060180739   -0.2206145      0             -0.17098518     0.58735509   
   1924000   0.069314424   -0.21844988     0             -0.16128828     0.13739147   
   1924500   0.068665863   -0.22034018     0             -0.16371343     0.038542678  
   1925000   0.065447381   -0.22130073     0             -0.16732817     0.17059021   
   1925500   0.070881531   -0.21794081     0             -0.15948686     0.088464024  
   1926000   0.070980067   -0.21777271     0             -0.1592375      0.43257608   
   1926500   0.062264856   -0.22009567     0             -0.16874764     0.32014303   
   1927000   0.068814048   -0.22693589     0             -0.17018694    -0.10937266   
   1927500   0.061774825   -0.22483984     0             -0.17389593     0.20263822   
   1928000   0.063979378   -0.22438661     0             -0.17162467     0.11923988   
   1928500   0.07740636    -0.21474059     0             -0.1509058     -0.092571146  
   1929000   0.071701881   -0.21997097     0             -0.16084051     0.32265893   
   1929500   0.073814226   -0.21927383     0             -0.15840138    -0.17946595   
   1930000   0.067439666   -0.21294886     0             -0.15733332     0.35050637   
   1930500   0.065075051   -0.21368055     0             -0.16001504     0.004183587  
   1931000   0.065545328   -0.21517335     0             -0.16112001    -0.33169773   
   1931500   0.060614797   -0.21342515     0             -0.16343788     0.40022751   
   1932000   0.063672333   -0.21562188     0             -0.16311315     0.29110971   
   1932500   0.062947502   -0.21531876     0             -0.16340778     0.15860108   
   1933000   0.072184386   -0.21430629     0             -0.15477792     0.068102959  
   1933500   0.066293848   -0.21548212     0             -0.1608115     -0.42659111   
   1934000   0.063042803   -0.21530317     0             -0.1633136     -0.30599261   
   1934500   0.067175251   -0.21341356     0             -0.15801608     0.38523975   
   1935000   0.067036402   -0.21452906     0             -0.15924608    -0.057263808  
   1935500   0.065856134   -0.21821923     0             -0.16390958    -0.34876239   
   1936000   0.067550829   -0.21739418     0             -0.16168697    -0.045438836  
   1936500   0.063028698   -0.21659657     0             -0.16461863     0.95973767   
   1937000   0.063791598   -0.2174744      0             -0.16486731    -0.69882435   
   1937500   0.062836759   -0.21810519     0             -0.16628554     0.018821746  
   1938000   0.066167479   -0.22270148     0             -0.16813507    -0.025482951  
   1938500   0.065424725   -0.21860721     0             -0.16465334    -0.13902057   
   1939000   0.06804713    -0.21736543     0             -0.16124893    -0.24458606   
   1939500   0.072834091   -0.21494841     0             -0.15488425     0.16244911   
   1940000   0.067165183   -0.22094422     0             -0.16555504     0.11230857   
   1940500   0.065134058   -0.22395147     0             -0.1702373     -0.0060717318 
   1941000   0.070101411   -0.21985534     0             -0.16204473    -0.43592343   
   1941500   0.063247628   -0.21981575     0             -0.16765726    -0.55448866   
   1942000   0.057949431   -0.22341258     0             -0.17562337     0.085334406  
   1942500   0.056570217   -0.22587449     0             -0.17922267     0.097042839  
   1943000   0.057610301   -0.22639041     0             -0.17888086     0.035690089  
   1943500   0.061132812   -0.22605161     0             -0.17563715     0.085699028  
   1944000   0.064296759   -0.23087216     0             -0.17784848     0.1465298    
   1944500   0.067230374   -0.22451017     0             -0.16906723     0.068022532  
   1945000   0.064870269   -0.22784793     0             -0.1743513      0.32680994   
   1945500   0.076132694   -0.22898862     0             -0.16620419     1.0135045    
   1946000   0.066206566   -0.2262627      0             -0.17166406    -0.40521785   
   1946500   0.061257896   -0.22892367     0             -0.17840606     0.057918172  
   1947000   0.059827441   -0.22876        0             -0.17942204    -0.042725812  
   1947500   0.072513044   -0.22727625     0             -0.16747684     0.50046431   
   1948000   0.076092556   -0.21994547     0             -0.15719414    -0.053232589  
   1948500   0.06305006    -0.22312823     0             -0.17113267     0.31277658   
   1949000   0.063073651   -0.22623523     0             -0.17422022    -0.11953268   
   1949500   0.062241876   -0.22230325     0             -0.17097417     0.18121971   
   1950000   0.066991972   -0.22419223     0             -0.16894589     0.50551766   
   1950500   0.079163869   -0.21953144     0             -0.15424729    -0.33480984   
   1951000   0.066766493   -0.22030502     0             -0.16524462    -0.094342247  
   1951500   0.06519089    -0.219683       0             -0.16592196    -0.05030755   
   1952000   0.064073052   -0.21763622     0             -0.16479703     0.4451673    
   1952500   0.063343614   -0.21721269     0             -0.16497504     1.2992436    
   1953000   0.068474638   -0.21877849     0             -0.16230944     0.6485765    
   1953500   0.066108478   -0.22305533     0             -0.16853758    -0.19856356   
   1954000   0.060529709   -0.22084561     0             -0.17092851    -0.37874941   
   1954500   0.059705662   -0.2257229      0             -0.17648536     0.17873495   
   1955000   0.061390968   -0.22075632     0             -0.17012896     0.33148706   
   1955500   0.069291383   -0.21548643     0             -0.15834383     0.34586704   
   1956000   0.068665598   -0.21699101     0             -0.16036448    -0.013971026  
   1956500   0.069288636   -0.22040545     0             -0.16326512    -0.75159366   
   1957000   0.067723109   -0.22038511     0             -0.16453583     0.19292154   
   1957500   0.063209638   -0.21649385     0             -0.16436669    -0.41813162   
   1958000   0.064820201   -0.22421537     0             -0.17076002     0.21950001   
   1958500   0.061213315   -0.23051239     0             -0.18003155     0.12197243   
   1959000   0.072134912   -0.22170418     0             -0.16221661     0.30319203   
   1959500   0.065718322   -0.22625304     0             -0.17205704     0.31516322   
   1960000   0.062715281   -0.22551082     0             -0.17379134    -0.052662625  
   1960500   0.063240597   -0.23125525     0             -0.17910256    -0.80220875   
   1961000   0.069916922   -0.22893006     0             -0.1712716      0.072708196  
   1961500   0.070445507   -0.22354242     0             -0.16544804    -0.60954026   
   1962000   0.067287419   -0.23231256     0             -0.17682257    -0.22700956   
   1962500   0.078888746   -0.22647029     0             -0.16141303     0.59629247   
   1963000   0.067222184   -0.22320937     0             -0.16777318    -0.27111392   
   1963500   0.06471076    -0.23188111     0             -0.17851602     0.57870538   
   1964000   0.076120053   -0.22537145     0             -0.16259745    -0.35579303   
   1964500   0.06845328    -0.22265768     0             -0.16620624    -0.17110276   
   1965000   0.068098054   -0.22547158     0             -0.16931309     0.1705894    
   1965500   0.064644193   -0.21948853     0             -0.16617833     0.28438892   
   1966000   0.063815568   -0.22084428     0             -0.16821743    -0.20023331   
   1966500   0.075003483   -0.22261149     0             -0.16075829     0.1090169    
   1967000   0.072715928   -0.21583072     0             -0.155864       1.0284302    
   1967500   0.065498747   -0.22343886     0             -0.16942394     0.0048107613 
   1968000   0.064693586   -0.22101589     0             -0.16766496    -0.83578089   
   1968500   0.0761729     -0.22125158     0             -0.15843399    -0.089753533  
   1969000   0.073734012   -0.2193881      0             -0.15858179    -0.5223679    
   1969500   0.072612182   -0.22158114     0             -0.16169997     0.043558234  
   1970000   0.071341929   -0.22143987     0             -0.16260625     0.011608929  
   1970500   0.06159569    -0.22562124     0             -0.17482505    -0.30179192   
   1971000   0.065073141   -0.2268468      0             -0.17318287     0.014940302  
   1971500   0.067896893   -0.22334883     0             -0.16735623    -0.5189842    
   1972000   0.063225917   -0.22582333     0             -0.17368275    -0.61500361   
   1972500   0.073990211   -0.22434066     0             -0.16332308    -0.36703569   
   1973000   0.068844791   -0.2234247      0             -0.1666504     -0.46065736   
   1973500   0.062035349   -0.22736238     0             -0.17620363     0.77591353   
   1974000   0.060157826   -0.22798411     0             -0.1783737     -0.14797477   
   1974500   0.068803569   -0.22707215     0             -0.17033184     0.013539576  
   1975000   0.064123766   -0.22682162     0             -0.17394061     0.59530415   
   1975500   0.057920708   -0.225836       0             -0.17807046     0.60248925   
   1976000   0.062193508   -0.22954112     0             -0.17825193     1.0870031    
   1976500   0.061674168   -0.22684817     0             -0.17598727     0.012805422  
   1977000   0.062882878   -0.22958378     0             -0.17772609    -0.84719257   
   1977500   0.072015096   -0.22477561     0             -0.16538685     0.28108316   
   1978000   0.064579539   -0.22326141     0             -0.17000454     0.12283523   
   1978500   0.070210929   -0.2262807      0             -0.16837978    -0.15190774   
   1979000   0.070262388   -0.22357523     0             -0.16563187    -0.48129695   
   1979500   0.07989921    -0.21831797     0             -0.1524274      0.26300684   
   1980000   0.067663656   -0.22193955     0             -0.16613929     0.55195558   
   1980500   0.071896982   -0.22383436     0             -0.164543       0.18398584   
   1981000   0.074745323   -0.22198727     0             -0.16034696    -0.0063439163 
   1981500   0.07440001    -0.22169128     0             -0.16033575     0.44462865   
   1982000   0.06469133    -0.22484055     0             -0.17149148     0.037746813  
   1982500   0.067438935   -0.22536577     0             -0.16975084    -0.46411405   
   1983000   0.073465515   -0.21928431     0             -0.15869943    -0.39455436   
   1983500   0.071826096   -0.21697893     0             -0.15774603    -0.17889701   
   1984000   0.080644156   -0.22283492     0             -0.15633002    -0.60209511   
   1984500   0.0816026     -0.21922305     0             -0.15192775    -0.5689047    
   1985000   0.07096325    -0.21308743     0             -0.15456609     0.37308239   
   1985500   0.071331796   -0.22073556     0             -0.16191029    -0.042560127  
   1986000   0.071932936   -0.22170345     0             -0.16238244    -0.095805267  
   1986500   0.074613935   -0.21900913     0             -0.15747718     0.24024524   
   1987000   0.072339408   -0.22239873     0             -0.16274251    -0.099497149  
   1987500   0.07448557    -0.21927692     0             -0.15785082    -0.51833321   
   1988000   0.076146126   -0.21445265     0             -0.15165714    -0.28015785   
   1988500   0.075553956   -0.21318146     0             -0.1508743     -0.011211653  
   1989000   0.072103242   -0.21919774     0             -0.15973628     0.061088719  
   1989500   0.068333199   -0.21739512     0             -0.16104271    -0.31704066   
   1990000   0.072674387   -0.22370204     0             -0.16376957     0.11197652   
   1990500   0.076578279   -0.21623478     0             -0.15308289     0.21815486   
   1991000   0.072939058   -0.21399045     0             -0.15383972    -0.03763835   
   1991500   0.073629121   -0.21325587     0             -0.15253606    -0.24865715   
   1992000   0.073382246   -0.21419568     0             -0.15367947     0.27282132   
   1992500   0.067859349   -0.2120216      0             -0.15605996    -0.10764679   
   1993000   0.067155358   -0.21533231     0             -0.15995123     0.2563446    
   1993500   0.071755218   -0.21887153     0             -0.15969708     0.41325954   
   1994000   0.068664719   -0.21698577     0             -0.16035996    -0.0083158833 
   1994500   0.066938306   -0.21456105     0             -0.15935897     0.078320249  
   1995000   0.066757573   -0.21365157     0             -0.15859853    -0.42871426   
   1995500   0.06425624    -0.22001003     0             -0.16701977    -0.78642119   
   1996000   0.0678548     -0.22116508     0             -0.16520719     0.66891937   
   1996500   0.067496394   -0.21552678     0             -0.15986446     0.26759915   
   1997000   0.06586347    -0.21713361     0             -0.16281791     0.63852252   
   1997500   0.064573635   -0.21970976     0             -0.16645775    -0.38468579   
   1998000   0.062691043   -0.22005865     0             -0.16835916    -0.033937613  
   1998500   0.066311634   -0.21873822     0             -0.16405293     0.0065651151 
   1999000   0.060461949   -0.2188103      0             -0.16894908    -0.020875707  
   1999500   0.064940272   -0.21937197     0             -0.1658176      0.079851772  
   2000000   0.06284607    -0.21888869     0             -0.16706136     0.046264462  
   2000001   0.062757044   -0.21887072     0             -0.16711681    -0.023666822  
Loop time of 461.132 on 4 procs for 1000000 steps with 1520 atoms

Performance: 187365.012 tau/day, 2168.577 timesteps/s, 3.296 Matom-step/s
90.7% CPU use with 4 MPI tasks x 1 OpenMP threads

MPI task timing breakdown:
Section |  min time  |  avg time  |  max time  |%varavg| %total
---------------------------------------------------------------
Pair    | 70.342     | 71.168     | 72.263     |   8.5 | 15.43
Bond    | 0.20776    | 0.21088    | 0.21592    |   0.7 |  0.05
Neigh   | 7.4083     | 7.413      | 7.4191     |   0.2 |  1.61
Comm    | 56.789     | 57.632     | 58.29      |   7.3 | 12.50
Output  | 1.8159     | 1.8653     | 1.91       |   2.6 |  0.40
Modify  | 309.69     | 310.17     | 310.65     |   2.0 | 67.26
Other   |            | 12.67      |            |       |  2.75

Nlocal:            380 ave         407 max         346 min
Histogram: 1 0 0 0 0 0 2 0 0 1
Nghost:         940.75 ave         954 max         930 min
Histogram: 2 0 0 0 0 0 0 1 0 1
Neighs:              0 ave           0 max           0 min
Histogram: 4 0 0 0 0 0 0 0 0 0

Total # of neighbors = 0
Ave neighs/atom = 0
Ave special neighs/atom = 2.0657895
Neighbor list builds = 3500
Dangerous builds = 0

# Write data for deformation

write_data data.hydrogel
System init for write_data ...
WARNING: Using a manybody potential with bonds/angles/dihedrals and special_bond exclusions (src/pair.cpp:243)
Hybrid pair style last /omp style sw/omp
Last active /omp style is pair_style sw/omp
WARNING: More than one fix rigid command (src/RIGID/fix_rigid_small.cpp:529)
WARNING: More than one fix rigid command (src/RIGID/fix_rigid_small.cpp:529)
WARNING: One or more atoms are time integrated more than once (src/modify.cpp:296)
Total wall time: 0:14:31
