LAMMPS data file via write_data, version 19 Nov 2024, timestep = 300000, units = lj

32 atoms
4 atom types
22 bonds
1 bond types
15 angles
2 angle types

-2.068243 2.068243 xlo xhi
-2.068243 2.068243 ylo yhi
-2.068243 2.068243 zlo zhi
-0.00012409459405215983 0 0 xy xz yz

Masses

1 1
2 1
3 0.1
4 0.1

Bond Coeffs # harmonic/omp

1 100 0.45

Angle Coeffs # harmonic/omp

1 100 180
2 100 109.471

Atoms # full

22 7 4 0 -1.2606161065804689 -1.2226446188312268 -1.6823536791907945 2 0 0
4 1 3 0 -1.1128235181044057 -1.5781813744179236 -1.5651647434463656 2 0 1
1 1 1 0 -0.9755594725575474 -1.767600601693643 -1.9497210612099471 2 0 1
5 1 3 0 -0.527123055702724 -1.8125533363427513 -1.9416757829244091 2 0 1
7 2 4 0 -0.23793716789639308 -1.6051303502648109 -1.7943355659513585 1 0 0
21 7 2 0 -1.3920646191586 -0.9926011391464835 -1.3015828108667171 2 0 0
28 9 4 0 -1.7715531434755984 -0.6588539551583776 -0.6454803662103874 4 1 -1
23 7 4 0 -1.525548061427756 -0.7684032251235973 -0.9294012723332821 2 0 0
13 4 4 0 -0.5834280008353669 -0.6503157185910378 0.7280453577068289 2 1 0
12 4 2 0 -0.26059048394905737 -0.6808319437013797 0.41334170674904946 2 1 0
32 10 4 0 -1.0674061953644691 -1.2752661782475225 1.5420997601438478 4 1 0
3 1 3 0 -1.0856189069973285 -1.5148230757796906 1.8525130014516478 2 0 0
31 10 4 0 -0.7513089168259728 -0.5612295874256517 1.0743033000185118 4 1 0
30 10 2 0 -0.908650881854431 -0.9176111463514849 1.3027006156009215 4 1 0
10 3 4 0 -1.5637444429799194 0.5808189354976072 -1.4318613008542551 3 -1 1
9 3 2 0 -1.7287802242554544 0.2943592653399496 -1.7376804949962985 3 -1 1
16 5 4 0 -1.2624188334841087 0.8228965976500384 -1.5612277561566394 3 -1 1
11 3 4 0 -1.8984711267489032 0.013395655311208898 -2.042132710524455 3 -1 1
17 5 4 0 -1.051249157407173 1.6578493808253763 -1.8153762795081076 3 -1 1
15 5 2 0 -1.1551818275425143 1.2335993398588068 -1.6841576043078115 3 -1 1
2 1 3 0 -1.161123071452523 1.9870957833578915 -1.991118663637806 2 -1 1
6 2 2 0 0.14296559426009514 -1.6435962871042913 -2.0229731760462535 1 0 0
29 9 4 0 1.6494040896239928 -0.7087495056873876 -0.04491949011914631 2 1 -1
27 9 2 0 1.9998437169900312 -0.6853158609758685 -0.34329924868851647 2 1 -1
25 8 4 0 1.247776192167275 -0.6336656026065746 -0.018742185241811704 2 0 0
26 8 4 0 0.42262450847504773 -0.5761557089052811 0.267687126675765 1 0 0
14 4 4 0 0.0769534728466934 -0.7023104816696388 0.08725499925736147 1 1 0
24 8 2 0 0.8391165561534901 -0.6079818755962407 0.12194650772439353 1 0 0
8 2 4 0 0.5497967032875444 -1.687231334307804 1.8693259041205637 1 0 -1
20 6 4 0 0.5477750055854309 0.480279523523631 -0.30190264596035465 2 0 0
18 6 2 0 0.33809073194009853 0.7739337450027328 -0.03952406201302461 3 0 0
19 6 4 0 0.12076548158151423 1.0704000452679656 0.23138390433654443 3 0 0

Velocities

22 -0.936716861735286 -0.04239036984164108 -0.14173394445843535
4 0.7140098575027813 -0.021371816021876267 0.23376144018263736
1 -0.11902569642478947 0.030303718334078796 0.05138851096286946
5 -0.08879987068328107 0.2847458058637354 -0.9293935786408642
7 0.3708024359962558 0.3980190356236152 0.5067224602785152
21 -0.0736988820996217 0.04522229742249394 0.07672428497199378
28 -0.43632820905009223 0.6039460463114049 0.05277615619446068
23 0.7293976632229429 0.4769398176976175 -0.29978142602499536
13 -0.8513233525894818 0.28304387415768995 1.041471536611413
12 0.005724641680751474 -0.03472803487662329 0.07365022578222273
32 -0.28644289296831205 -0.6287965386971074 -0.33252440447777937
3 0.7614229426373583 -0.2042431818583755 -0.8291813207644337
31 -0.5024226565319359 -1.7748006403017034 0.0658495488628505
30 0.025494335397291755 0.00884085191583579 -0.07872799007434217
10 0.028214943578380582 -0.3256623057051333 -0.5810190016591407
9 0.11337465157773383 -0.14850512893719364 0.009699359173707367
16 -0.505596480917911 0.19508076473602903 -0.11537733422608494
11 -0.1020202764040914 0.5618041988945327 0.43534111181550794
17 0.2840904346480753 -0.16388488386009908 0.03546934437932824
15 0.10613313871749128 0.03420678309420646 -0.07244047976967688
2 -0.346488823060435 -0.039171881780749596 0.6240755926943624
6 -0.1693278837599733 0.020582268997770468 -0.23528363845487887
29 -0.4980568662354512 -0.09946580164153108 0.18171329048196433
27 -0.05635813797443491 0.06504093503130194 -0.034894739173879835
25 0.06810499803587536 -0.10593358813164297 -0.4657877349913528
26 -0.8411327664370727 0.5674719219739129 -1.1291808073699954
14 0.6490574823667887 0.0896986226858768 0.9991146401195492
24 0.18537709222478463 0.006343774809576536 0.06436035848857317
8 -0.32007176403178184 -0.33188992153736746 0.3603256178712281
20 0.058253408277373075 1.4431320975036792 0.27072519353154567
18 0.37049741050388457 -0.1593565380169563 0.09665583261605644
19 0.09935547057053318 0.1542194661842164 0.5053163743632804

Bonds

1 1 1 2
2 1 1 3
3 1 1 4
4 1 1 5
5 1 21 22
6 1 21 23
7 1 12 13
8 1 12 14
9 1 30 31
10 1 30 32
11 1 9 10
12 1 9 11
13 1 15 16
14 1 15 17
15 1 6 7
16 1 6 8
17 1 27 28
18 1 27 29
19 1 24 25
20 1 24 26
21 1 18 19
22 1 18 20

Angles

1 2 2 1 3
2 2 2 1 4
3 2 2 1 5
4 2 3 1 4
5 2 3 1 5
6 2 4 1 5
7 1 22 21 23
8 1 13 12 14
9 1 31 30 32
10 1 10 9 11
11 1 16 15 17
12 1 7 6 8
13 1 28 27 29
14 1 25 24 26
15 1 19 18 20
