LAMMPS data file via write_data, version 27 Jun 2024, timestep = 1250000, units = lj

1600 atoms
4 atom types
1100 bonds
1 bond types

-8 8 xlo xhi
-8 8 ylo yhi
-8 8 zlo zhi

Masses

1 1
2 1
3 0.5
4 0.5

Bond Coeffs # zero

1 0

Atoms # bond

376 92 4 -7.291230077405953 -4.8817914302985495 -6.856123093647793 0 0 0
374 92 2 -7.516422377197242 -5.309182448358656 -6.985062404163462 0 0 0
17 4 3 -7.103561105970014 -4.585932305422362 -6.672996155852895 0 0 0
375 92 4 -7.74161467698853 -5.736573466418762 -7.114001714679131 0 0 0
991 297 4 -7.901272212399967 -6.087742096450779 -7.225861882718863 1 0 0
260 54 2 -4.865998514143772 -6.006059759430632 -7.145557497999357 0 0 0
59 12 3 -4.577028888780808 -5.964049824583664 -7.679520011601088 0 0 1
261 54 4 -4.989189117170845 -5.95620035497938 -7.6275721400109795 0 0 0
1574 492 2 -7.9991069536206165 -1.184267875766844 -6.125868395100605 1 0 1
60 12 3 -3.851048339351938 -5.971989355627533 -7.878992329725084 0 0 1
828 243 4 -7.384123325568801 -4.284050746703968 -7.626041492406288 0 0 1
19 4 3 -6.5989325469925735 -4.118321821156056 -6.370357010221364 0 0 0
16 4 1 -7.025887141180804 -4.294439817881148 -6.3257226542709875 0 0 0
20 4 3 -7.334277071182276 -3.959601879305724 -6.339109437463671 0 0 0
520 140 4 -7.50788930250027 -4.441261911572678 -7.301866923718468 0 0 1
518 140 2 -7.885779248507671 -4.223480276048212 -7.057387174179139 0 0 1
366 89 4 -6.230389260471732 -4.178521929817638 -6.423662432406554 0 0 0
365 89 2 -5.921210798350015 -4.284370668121385 -6.802086431592065 0 0 0
367 89 4 -5.612032336228298 -4.390219406425132 -7.180510430777576 0 0 0
588 163 4 -5.218607134251535 -4.402117331042051 -7.114078603248202 0 1 0
587 163 2 -4.9333987289868615 -4.0700798047173326 -7.355754515739586 0 1 0
589 163 4 -4.648190323722188 -3.7380422783926135 -7.597430428230971 0 1 0
690 197 4 -4.410113912935412 -3.5565314954112592 -7.328268432017864 0 1 0
689 197 2 -4.241871013543978 -3.215041918696027 -7.004109218360105 0 1 0
190 38 3 -7.8816549927873005 -2.3884207599538647 -6.518888092083136 1 0 0
188 38 3 -7.670052957801667 -2.0105508989067116 -7.134793074123502 1 0 0
793 231 4 -7.359320155854074 -1.8075466480825373 -7.295849872022744 0 0 1
791 231 2 -7.084712983232601 -1.7681135043733351 -7.7118257462294695 0 0 1
691 197 4 -4.0736281141525446 -2.873552341980795 -6.679950004702346 0 1 0
553 151 4 -2.5925513181939874 -6.04159298177089 -7.646696133373441 0 0 1
35 7 3 -2.065572226423529 -7.9729841441692395 -2.266669653628991 0 0 0
654 185 4 -7.853670127081923 -1.894900370902517 -1.8338894389431875 0 0 0
523 141 4 -0.7624237977237117 -1.3335235993590404 -0.5306882363770127 0 0 0
1056 319 4 -4.770470467510394 -6.580563301719825 -5.579738585369732 1 0 0
353 85 2 -6.977476890007823 -5.003013172297277 -5.195145364807193 0 0 0
355 85 4 -6.911742559009883 -5.154291704529411 -4.723134979949037 0 0 0
1055 319 2 -4.603541218215162 -6.334365508870555 -5.9816356773297 1 0 0
1057 319 4 -4.43661196891993 -6.088167716021284 -6.383532769289667 1 0 0
262 54 4 -4.742807911116699 -6.0559191638818834 -6.663542855987734 0 0 0
331 77 4 -4.835900344076393 -6.387117313709963 -5.2075305232727835 0 0 0
310 70 4 -3.6397332091788153 -4.6464344185906405 -4.996002263963154 0 0 0
354 85 4 -7.043211221005764 -4.851734640065143 -5.667155749665349 0 0 0
18 4 3 -7.0607055120819044 -4.525816478393544 -5.925032596972425 0 0 0
114 23 3 -3.7186606893925553 -3.7937593041456203 -5.358664231417418 0 1 0
1031 311 2 -3.81863929643748 -3.229075542102363 -5.902091545008962 1 0 0
1033 311 4 -3.5927726533225846 -3.4238143290529717 -5.500767406207153 1 0 0
112 23 3 -3.9545596634441096 -4.489651307435473 -5.200594646111897 0 1 0
111 23 1 -4.039363079587773 -4.042501565084621 -5.133770335221838 0 1 0
115 23 3 -4.453842018037886 -3.942851005031881 -5.294010702989897 0 1 0
401 101 2 -0.6704122690897685 -4.915023685386417 -4.839707004691753 0 0 0
402 101 4 -0.589645407692176 -4.544346152034164 -5.165398392922808 0 0 0
1221 374 4 -0.7815615326582022 -4.070306900633398 -6.182590390693494 1 0 1
1222 374 4 -0.816194597995056 -4.740258107991496 -5.440993511961659 1 0 1
1220 374 2 -0.7988780653266291 -4.405282504312447 -5.811791951327576 1 0 1
1314 405 4 -0.48961964818862747 -3.8062983547892366 -6.330966686209725 1 1 0
1371 424 4 -7.594141227129783 -2.419835543229623 -6.2310093639798785 1 0 0
1370 424 2 -7.533790658481061 -2.2258668011935367 -5.774135271940602 1 0 0
517 139 4 -7.55058393055164 -1.6729341675827663 -5.13645999160541 0 0 1
1372 424 4 -7.47344008983234 -2.0318980591574505 -5.317261179901325 1 0 0
1032 311 4 -4.044505939552376 -3.0343367551517537 -6.303415683810772 1 0 0
1315 405 4 -0.501614329201146 -2.8599897768196745 -6.007924579219578 1 1 0
1313 405 2 -0.49561698869488646 -3.333144065804456 -6.169445632714651 1 1 0
1405 435 4 -0.5285359836107055 -2.4406608929282383 -5.986266347914092 0 0 0
1403 435 2 -0.8289076481823828 -2.1422416574364314 -5.72032871798759 0 0 0
1404 435 4 -1.1292793127540601 -1.8438224219446244 -5.4543910880610875 0 0 0
903 268 4 -0.9108317775560211 -0.5525648522362623 -5.774318012891866 0 0 0
1300 400 4 -1.2741707480728894 -0.44857794637234144 -5.864022775817607 0 0 0
904 268 4 -0.9560059250948898 -1.4718752346143154 -5.3833861553437075 0 0 0
902 268 2 -0.9334188513254554 -1.0122200434252888 -5.578852084117787 0 0 0
329 77 2 -4.898510776422949 -6.760938262371953 -4.8814357025490756 0 0 0
330 77 4 -4.961121208769505 -7.134759211033943 -4.555340881825368 0 0 0
345 82 4 -4.787392164842998 -7.168683067515692 -4.188219312120404 0 0 0
344 82 2 -4.5270857866458645 -7.424590620579207 -3.846529520416093 0 0 0
346 82 4 -4.266779408448731 -7.680498173642722 -3.5048397287117825 0 0 0
673 191 4 -2.448926800844945 -7.81443520699276 -2.2348139752666976 0 1 0
1517 473 2 -4.245429665214038 -1.084647902465063 -0.06274085215300303 1 0 0
1395 432 4 -1.0320561003188082 -7.808954119867914 -4.1568255791335185 0 1 0
1474 458 4 -1.352532571134165 -7.882555593438332 -3.8922314041873864 0 1 1
745 215 4 -6.937021264185487 -5.486765140273873 -4.454211519333628 0 1 0
743 215 2 -6.675970271553417 -5.220940092873923 -4.120760738226992 0 1 0
1014 305 4 -1.2388027741972163 -0.04538236221219344 -1.2281714202041074 0 0 0
744 215 4 -6.414919278921346 -4.955115045473974 -3.787309957120357 0 1 0
308 70 2 -3.408007458410171 -4.8601014645644876 -4.607866244125368 0 0 0
29 6 3 -2.796900941134871 -6.040571144851956 -4.280163975673415 0 0 0
309 70 4 -3.176281707641527 -5.0737685105383346 -4.2197302242875825 0 0 0
28 6 3 -3.0833207702503413 -5.401258563642329 -3.9854724335542913 0 0 0
410 104 2 -1.6014138815543026 -5.519340719654079 -4.461844030169573 0 0 0
412 104 4 -2.0910083305621607 -5.604601205282003 -4.40681744485681 0 0 0
27 6 3 -2.4047385946155733 -5.400025348740554 -4.308620557627126 0 0 0
26 6 1 -2.6964570741247518 -5.648170263299463 -4.053817829832847 0 0 0
30 6 3 -2.5012775658048243 -5.745060076343362 -3.653921188611257 0 0 0
357 86 4 -2.654612121239364 -5.9344698823665105 -3.3357992893347923 0 0 0
411 104 4 -1.1118194325464446 -5.434080234026156 -4.516870615482335 0 0 0
403 101 4 -0.751179130487361 -5.285701218738669 -4.514015616460699 0 0 0
933 278 4 -6.095381146698764 -5.041477854291804 -3.5626036829299674 1 0 0
932 278 2 -5.804827936356761 -4.634574362478539 -3.565498559460795 1 0 0
934 278 4 -5.514274726014759 -4.227670870665275 -3.5683934359916223 1 0 0
1192 364 4 -5.447378766239654 -3.899898867956219 -3.369737062376572 1 0 0
1190 364 2 -5.759907797260887 -3.5150798736509072 -3.3046221916420158 1 0 0
113 23 3 -4.019550449589419 -3.9523918219602185 -4.679031185943264 0 1 0
457 119 4 -4.269075378563957 -3.7259995371384598 -4.4457502688194825 0 0 0
455 119 2 -4.154607342859867 -3.4230357285039026 -4.064817204542186 0 0 0
456 119 4 -4.040139307155777 -3.1200719198693454 -3.6838841402648903 0 0 0
515 139 2 -7.775993843963024 -1.6811850742758523 -4.690228780824928 0 0 1
1575 492 4 -7.9821708475851825 -1.6250684880763515 -6.361257410349659 1 0 1
393 98 4 -0.22120013889419954 -7.718545556435882 -0.3012008647861537 0 0 0
42 9 3 -7.802066878726932 -1.9306019256232552 -3.514494978081502 0 0 1
1519 473 4 -4.628882314695961 -0.9866440512763911 -0.36828841106565785 1 0 0
786 229 4 -4.727666317021715 -0.8813728444831825 -0.7481113675305552 0 0 0
1015 305 4 -1.8529566109239903 -0.7704890327083022 -0.9166663941839294 0 0 0
396 99 4 -3.9404304911231995 -7.429371088318679 -3.5463306900062777 0 0 0
395 99 2 -3.464404363154994 -7.306521861603012 -3.4551868861194515 0 0 0
356 86 2 -2.7852817203834266 -6.404033676824181 -3.2242856184507027 0 0 0
397 99 4 -2.9883782351867887 -7.183672634887345 -3.3640430822326253 0 0 0
358 86 4 -2.915951319527489 -6.873597471281851 -3.112771947566613 0 0 0
325 75 4 -1.144528671139581 -7.380444422705354 -2.378850841840405 0 0 0
32 7 3 -1.3966198654438315 -7.654626710302841 -2.176385197371608 0 0 0
323 75 2 -1.0769943836926414 -7.230646425330602 -1.9066224225330235 0 0 0
869 257 2 -4.110668026407483 -3.369884645452442 -2.902130312810979 0 1 0
871 257 4 -4.313671186525159 -3.4198775655529903 -2.4479382555025566 0 1 0
870 257 4 -3.9076648662898066 -3.319891725351894 -3.3563223701194014 0 1 0
1288 396 4 -2.1916230237302496 -1.0316927906629045 -0.8742644220275062 1 1 0
1191 364 4 -6.07243682828212 -3.1302608793455953 -3.2395073209074594 1 0 0
390 97 4 -3.2940979567547695 -2.6943859361673677 -1.5608019979377359 0 0 0
348 83 4 -2.956990663288993 -2.713221294962204 -1.3312237207528876 0 0 0
347 83 2 -2.6200014978468005 -2.410526936936861 -1.5429179058270175 0 0 0
681 194 4 -2.7384229173818206 -1.1163582245742867 -0.12463441283102591 0 0 0
1013 305 2 -1.5458796925606033 -0.40793569746024777 -1.0724189071940184 0 0 0
1182 361 4 -2.1749682188899735 -3.139457272580205 -0.0853427209508735 0 0 0
785 229 2 -5.183165242653917 -0.7570811544423276 -0.5835747316870517 0 0 0
1304 402 2 -6.063955555112306 -0.06579811026855352 -2.3958314416848876 1 0 0
787 229 4 -5.63866416828612 -0.6327894644014728 -0.41903809584354806 0 0 0
513 138 4 -6.752448528699035 -6.167972043827441 -0.9016344756669024 0 0 0
512 138 2 -6.610182766793191 -6.1830836190981495 -0.42253939816955716 0 0 0
526 142 4 -7.08112844826667 -6.159148066698072 -1.1445241330598226 0 0 0
524 142 2 -7.580644691685536 -6.174810642035719 -1.1599580662751954 0 0 0
280 60 4 -7.838689846399962 -5.873073469709105 -4.169236440351496 0 0 0
392 98 2 -0.690968438827144 -7.68209261123283 -0.13390194917659423 0 0 0
1305 402 4 -6.515864271899542 -0.14498452448264537 -2.5945976950973515 1 0 0
324 75 4 -1.0094600962457019 -7.080848427955851 -1.4343940032256421 0 0 0
528 143 4 -1.2195118914049077 -6.7935529895663835 -1.2619160365666309 0 0 0
527 143 2 -1.1892906663426546 -6.696824495091504 -0.7722934513927444 0 0 0
529 143 4 -1.1590694412804015 -6.600096000616625 -0.2826708662188576 0 0 0
1210 370 4 -6.012038940939783 -0.5411798623691582 -0.5197068003234757 1 0 0
980 294 2 -7.569000172237488 -0.3270323375608903 -0.10537098037010667 1 0 0
1208 370 2 -6.447277950762441 -0.308747036226804 -0.43882425795449087 1 0 0
893 265 2 -3.670386553381852 -4.3388812028497235 -0.15587748855361055 0 1 0
894 265 4 -3.206580088041971 -4.344314247333286 -0.3425698685174574 0 1 0
1011 304 4 -3.1169830705708756 -3.9512103870671327 -0.43035931652848747 0 0 0
1010 304 2 -2.810213626559707 -3.5646772447930513 -0.34983206558321267 0 0 0
495 132 4 -7.9183319851279705 -6.000076610758409 -3.7871162975804813 0 0 0
482 128 2 -4.351161764293947 -2.5779015613633955 -0.3222665424153909 0 0 0
483 128 4 -4.14136599982877 -2.439639628878469 -0.7545504482435009 0 0 0
391 97 4 -4.183514432508965 -2.5844089535796764 -1.1171316293555043 0 0 0
389 97 2 -3.7388061946318674 -2.639397444873522 -1.33896681364662 0 0 0
1287 396 4 -2.2274874367263218 -1.7770590809100963 -1.5399541675122836 1 1 0
349 83 4 -2.283012332404608 -2.1078325789115175 -1.7546120909011473 0 0 0
1286 396 2 -2.2095552302282857 -1.4043759357865004 -1.207109294769895 1 1 0
1209 370 4 -6.882516960585098 -0.0763142100844498 -0.35794171558550597 1 0 0
521 141 2 -0.8130810629462157 -1.7907917192041956 -0.33488295541285196 0 0 0
522 141 4 -0.8637383281687198 -2.2480598390493505 -0.1390776744486913 0 0 0
861 254 4 -2.2629469107314146 -6.793408372678913 -0.008310861170725159 0 1 0
170 34 3 -1.3886020276987023 -6.782166715511962 -0.028107133858391364 0 0 0
1012 304 4 -2.503444182548538 -3.17814410251897 -0.2693048146379379 0 0 0
167 34 3 -1.5270015962360317 -7.515544815017176 -0.029564046621730067 0 0 0
981 294 4 -7.884079434031437 -0.6931204623839735 0.02387507818062276 1 0 0
1146 349 4 -0.5150620651273266 -3.599072554135044 6.76011073450383 0 0 0
826 242 4 -6.584764636614428 -7.87253636294908 0.7292839821370379 0 1 0
49 10 3 -5.027847310073257 -7.137334315582653 0.3795475470267615 0 0 0
48 10 3 -5.151497580312661 -6.875266650925235 1.082136438065277 0 0 0
50 10 3 -4.613750056928766 -7.387105234136992 0.9566419528068812 0 0 0
46 10 1 -4.829383312194303 -7.025178728158922 0.7836925281356955 0 0 0
638 180 2 -3.6958355737818573 -6.608034787032398 0.935656429546055 0 1 0
639 180 4 -4.188264167484104 -6.693060819771591 0.9525281176969356 0 1 0
47 10 3 -4.525146337073668 -6.687816209566348 0.7113987246784025 0 0 0
1329 410 4 -4.7828647974269884 -7.963406685654068 6.882928608979917 1 1 -1
168 34 3 -2.0506789166423673 -7.0388332105806235 0.22224562413689486 0 0 0
860 254 2 -2.6174517063036316 -6.602758594457858 0.2883017009040514 0 1 0
640 180 4 -3.2034069800796097 -6.523008754293206 0.9187847413951736 0 1 0
862 254 4 -2.9719565018758485 -6.4121088162368025 0.584914262978828 0 1 0
169 34 3 -1.4162363337784512 -7.159358158353579 0.6229404531692762 0 0 0
166 34 1 -1.5946711200573538 -7.120610384518481 0.1963731817238146 0 0 0
1106 336 2 -0.3341100723769156 -0.9588312444516249 7.469430618677861 0 0 0
1241 381 2 -0.7889286004399639 -7.062246238128905 1.080959600124185 0 0 0
1242 381 4 -1.279666558928957 -7.038394217648827 0.9881838639801196 0 0 0
1243 381 4 -0.2981906419509708 -7.086098258608983 1.1737353362682506 0 0 0
1145 349 2 -0.3201305774283781 -3.807342262604466 7.1707510194705355 0 0 0
723 208 4 -7.612994356713723 -7.704461402884036 1.5953239376872896 0 1 -1
747 216 4 -4.541211862634865 -4.881500760896637 1.4470654985649891 0 1 0
748 216 4 -3.8106485081122092 -5.343871655124243 0.9445813284663006 0 1 0
746 216 2 -4.175930185373537 -5.11268620801044 1.195823413515645 0 1 0
706 202 4 -3.5787322645337407 -5.487069602106673 1.198822353644872 0 1 0
704 202 2 -3.127685882603363 -5.5353534936281195 1.409121728743946 0 1 0
538 146 4 -2.494427796378654 -5.656689050535842 1.2894992543850232 0 0 0
705 202 4 -2.676639500672985 -5.583637385149566 1.6194211038430197 0 1 0
536 146 2 -2.0410433572364526 -5.738097026996702 1.4839607974012696 0 0 0
537 146 4 -1.587658918094251 -5.819505003457563 1.678422340417516 0 0 0
1240 380 4 -7.832072586165175 -2.7394931085984306 1.3197437219557617 1 0 0
1155 352 4 -7.866494327238738 -2.9687703608231324 0.9658291242085493 1 0 0
534 145 4 -0.797998134924727 -0.37558469328158983 1.5022958848819896 0 0 0
911 271 2 -4.5525082661191165 -3.6078975253618855 0.0733212921370521 1 0 0
566 156 2 -6.443388655190591 -2.0837322412174477 7.14440230783243 0 0 -1
205 41 3 -0.20291449914275914 -1.0742158851337207 6.7966855301718825 0 0 0
912 271 4 -4.663547692865148 -3.1205464888396497 0.08593925190143113 1 0 0
1181 361 2 -1.784219988107385 -3.1748533044866787 0.22459750081060306 0 0 0
1183 361 4 -1.393471757324797 -3.2102493363931526 0.5345377225720792 0 0 0
1318 406 4 -0.5865020725119172 -2.648463529941778 0.5197444495911624 0 0 0
54 11 3 -1.0964656693861574 -2.207367933991806 0.2010052050957376 0 0 0
51 11 1 -1.1352430417822945 -2.4141995065097936 0.6145472416528303 0 0 0
55 11 3 -1.2637964991252444 -2.8476770338434636 0.5600381423953515 0 0 0
52 11 3 -0.7266020512069972 -2.402730549073367 0.8254524427194728 0 0 0
53 11 3 -1.445333727605984 -2.1887792851337897 0.8759463433348886 0 0 0
970 290 4 -3.8596841922744116 -1.0558536613476808 0.6242778357920337 1 0 0
968 290 2 -4.07648928641679 -0.8432266974212154 1.0214998459643403 1 0 0
892 264 4 -4.600676940062338 -0.418450803112691 1.5419323020276017 0 0 0
969 290 4 -4.2932943805591695 -0.63059973349475 1.418721856136647 1 0 0
1515 472 4 -7.8186166210724455 -0.18346425055957474 4.790657785880377 1 0 0
543 148 4 -1.5161026020108757 -0.8344210350302032 0.41331129053818594 0 0 0
680 194 2 -2.3369027252680312 -0.9728274636269494 0.1364794626845894 0 0 0
542 148 2 -1.2248345396795592 -0.7067506236501245 0.7991392080400198 0 0 0
682 194 4 -1.9353825331542418 -0.8292967026796121 0.3975933382002047 0 0 0
544 148 4 -0.9335664773482429 -0.579080212270046 1.1849671255418537 0 0 0
1480 460 4 -5.3790270160738 -5.737815793468583 2.4480338921269325 0 1 0
1478 460 2 -5.407741907289294 -6.068907436835322 2.821602866635247 0 1 0
817 239 4 -5.031780922380315 -5.758205938499419 2.2462702043773892 0 1 0
816 239 4 -4.737840578869881 -4.914560570947787 1.796980132969576 0 1 0
815 239 2 -4.884810750625098 -5.336383254723603 2.0216251686734825 0 1 0
326 76 2 -1.820223824032987 -5.9362311606700615 3.3018182628086468 0 0 0
477 126 4 -1.2965552179682136 -5.902692536190165 1.9464842387449992 0 0 0
476 126 2 -1.1688556126635785 -5.88659454816483 2.429633972871571 0 0 0
478 126 4 -1.0411560073589434 -5.870496560139494 2.912783706998142 0 0 0
327 76 4 -1.3326448173902088 -5.86291827639227 3.2188005943270963 0 0 0
1238 380 2 -7.70411296110274 -3.0191922422095163 1.7139451032459463 1 0 0
1239 380 4 -7.576153336040305 -3.298891375820602 2.108146484536131 1 0 0
451 117 4 -0.8365447171588138 -3.108176674736856 3.128786069295676 0 0 0
449 117 2 -1.0816606256536323 -2.748481529580847 3.374829955531359 0 0 0
227 46 3 -4.342239116861748 -0.17364066552975066 2.6862112409400565 1 0 0
963 288 4 -0.03197222596539351 -6.638115980268995 5.496999278812099 0 0 -1
890 264 2 -4.502412290831688 -0.1800845688877768 1.9703311781851034 0 0 0
226 46 1 -4.513072513081582 -0.15514563612416393 3.112912406421573 1 0 0
316 72 4 -7.091143883077024 -0.1080463324925551 2.976792564113425 0 0 -1
433 111 4 -5.508695873092875 -6.516620526380738 4.398000755081245 0 0 0
265 55 4 -5.604192351803035 -6.265925925365877 4.70638282346466 0 0 0
1547 483 2 -2.411347406243122 -6.670320982509061 3.894908742388561 0 1 0
306 69 4 -2.6274241227511497 -7.342382304213617 3.8529200798389547 0 0 -1
1548 483 4 -2.3799177418772413 -7.128786513144799 4.091940550523032 0 1 0
305 69 2 -2.48512781967197 -7.7961506285606115 4.007341807420661 0 0 -1
1549 483 4 -2.4427770706090026 -6.211855451873323 3.6978769342540905 0 1 0
431 111 2 -5.611480620498345 -6.547281756260807 3.9096410672659676 0 0 0
1479 460 4 -5.436456798504788 -6.399999080202061 3.1951718411435617 0 1 0
432 111 4 -5.714265367903816 -6.577942986140876 3.42128137945069 0 0 0
328 76 4 -2.307802830675765 -6.009544044947853 3.384835931290197 0 0 0
1043 315 2 -1.821372065621717 -5.339051845477847 4.603391434653198 1 0 0
339 80 4 -0.3810908997990758 -6.551907074986298 5.328436005210733 0 0 -1
1044 315 4 -1.4369217055081747 -5.0734775749002345 4.78134712412599 1 0 0
1528 476 4 -1.2177538997828827 -4.753665177733625 4.730097275733392 1 1 0
450 117 4 -1.3267765341484508 -2.3887863844248383 3.620873841767042 0 0 0
154 31 3 -1.6591382720623047 -2.162473454924337 3.7152213044684226 0 0 0
274 58 4 -0.9165699196806589 -1.4412075033137521 4.018312380529945 0 0 -1
153 31 3 -1.310190525773432 -1.5739768446658124 4.046140040828489 0 0 0
230 46 3 -4.8965697392354315 -0.4000477038850152 3.1316968345140834 1 0 0
686 196 2 -4.927485253570041 -0.1313258075544982 4.478551376105083 0 0 -1
471 124 4 -3.9425540242012462 -0.147650830278069 3.656161600683058 0 0 0
470 124 2 -3.890447464664031 -0.38374182792289174 4.093821225602089 0 0 0
687 196 4 -4.7253913133665435 -0.5492546811372128 4.664275623199825 0 0 -1
472 124 4 -3.8383409051268154 -0.6198328255677146 4.53148085052112 0 0 0
78 16 3 -3.68920857512294 -0.8771117774034133 4.818617602617082 0 0 -1
79 16 3 -4.426135859388315 -0.8177577261517925 4.642506063230022 0 0 -1
228 46 3 -4.199646419318084 -0.3289370089552944 3.407633702695911 1 0 0
1246 382 4 -2.630244166558858 -0.4909351076956809 3.9655188495654135 0 0 0
1244 382 2 -2.3010933401348597 -0.8160659334379067 3.7759148421800797 0 0 0
1245 382 4 -1.9719425137108613 -1.1411967591801324 3.586310834794746 0 0 0
360 87 4 -2.5964566581245947 -0.2648201108472769 4.296414939993108 0 0 0
359 87 2 -2.464083745690211 -0.09730966042747986 4.748540653765058 0 0 0
152 31 3 -1.7833314179170117 -1.4618944559663662 3.4730124509106735 0 0 0
1600 500 4 -0.5530050643114507 -0.15990774211325587 3.1876972505464796 0 0 0
549 150 4 -0.8236898403379311 -0.49062944214448406 3.168415009575944 0 0 0
548 150 2 -0.8418253408851086 -0.9891333927458891 3.202545858594027 0 0 0
550 150 4 -0.8599608414322861 -1.487637343347294 3.236676707612111 0 0 0
155 31 3 -1.1217503160825335 -1.7839150136445958 3.3480596353038203 0 0 0
151 31 1 -1.4654793526870502 -1.7467890125271617 3.6444917682380877 0 0 0
272 58 2 -0.8473007492170417 -1.3713089425129497 4.508532711831349 0 0 -1
263 55 2 -5.211454707948354 -6.011896939307043 4.8830928043412225 0 0 0
264 55 4 -4.818717064093673 -5.757867953248209 5.0598027852177845 0 0 0
297 66 4 -4.550034543021518 -5.884907881005557 4.779180187545307 0 0 -1
296 66 2 -4.128824870967802 -5.702815404524292 4.977736834820892 0 0 -1
298 66 4 -3.7076151989140858 -5.520722928043027 5.176293482096477 0 0 -1
972 291 4 -3.486801677993335 -5.464239161407135 4.863866475127252 1 0 0
971 291 2 -3.0243470188219312 -5.589873068719069 4.721206706642242 1 0 0
973 291 4 -2.5618923596505274 -5.715506976031004 4.578546938157232 1 0 0
1045 315 4 -2.205822425735259 -5.60462611605546 4.4254357451804065 1 0 0
333 78 4 -1.8422857313989778 -5.754636712494487 6.171521714180272 0 0 -1
303 68 4 -2.2035056950743677 -5.724255891208247 6.348665270021812 0 0 -1
332 78 2 -1.3483993092294908 -5.819691439133165 6.214464519614826 0 0 -1
338 80 2 -0.47165304987732587 -6.179503806966354 5.649550163947575 0 0 -1
334 78 4 -0.8545128870600037 -5.884746165771843 6.257407325049381 0 0 -1
340 80 4 -0.5622151999555759 -5.8071005389464085 5.970664322684417 0 0 -1
489 130 4 -5.107940530428957 -4.003452562506269 6.523631978910072 0 0 0
630 177 4 -5.319961426808552 -4.114344822649808 6.198568113091935 0 0 0
488 130 2 -4.795270009929814 -4.3921178875741465 6.489333134896369 0 0 0
629 177 2 -5.817780667365969 -4.06920861097631 6.2103463186684476 0 0 0
1526 476 2 -1.0824416123072136 -4.6081752278086965 5.188925412761782 1 1 0
1527 476 4 -0.9471293248315446 -4.462685277883768 5.647753549790172 1 1 0
468 123 4 -0.5725217976345949 -4.392685761254764 5.663785284691074 0 0 0
467 123 2 -0.5902884127714293 -4.0271317297249265 6.004453154351337 0 0 0
821 241 2 -5.592568073016245 -2.2520316161201848 6.064351327919076 0 0 0
822 241 4 -5.282020336470643 -2.332607601660108 5.68085737245084 0 0 0
823 241 4 -5.903115809561847 -2.1714556305802617 6.447845283387312 0 0 0
600 167 4 -4.948187296141532 -2.1475649156337426 5.801851441982553 0 0 -1
599 167 2 -4.644511877922302 -1.9495872434421468 5.457488143004609 0 0 -1
601 167 4 -4.340836459703072 -1.7516095712505515 5.113124844026665 0 0 -1
567 156 4 -6.206241880905449 -2.183496381492411 6.71567334477844 0 0 -1
1107 336 4 -0.49626263165459794 -1.1754533873913142 7.048976822514817 0 0 0
77 16 3 -4.176736881523441 -1.4040668621428605 5.041181052279202 0 0 -1
76 16 1 -4.122489244711848 -0.9534997798409061 4.966037867317013 0 0 -1
80 16 3 -4.1969127965074025 -0.7267149184424956 5.353890624917933 0 0 -1
318 73 4 -4.009232526379662 -0.4077252896707747 5.485315487110558 0 0 0
273 58 4 -0.7780315787534244 -1.3014103817121472 4.998753043132753 0 0 -1
560 154 2 -0.1327890789337483 -1.3848001584501406 5.409999774602261 0 0 0
561 154 4 -0.3603445452159235 -1.356707655260433 4.965669580906583 0 0 0
1415 439 2 -5.3734345444040095 -7.7772490817557784 7.239161835538992 1 1 -1
930 277 4 -5.264731594341486 -7.3349762832413585 7.790383755322155 1 0 -1
1417 439 4 -5.563733815293556 -7.522202846880392 7.624826982492662 1 1 -1
929 277 2 -4.973048022730867 -6.929802272973501 7.817855840352893 1 0 -1
667 189 4 -2.1001428294026896 -7.9671856757095085 7.496300526012777 0 1 -1
792 231 4 -6.810105810611128 -1.728680360664133 7.872198379563806 0 0 0
568 156 4 -6.680535429475733 -1.9839681009424848 7.57313127088642 0 0 -1
802 234 4 -4.1802577377885495 -5.195289559728275 7.6984308547628295 0 1 0
800 234 2 -4.386222507025084 -5.072335956159497 7.259727167517334 0 1 0
931 277 4 -4.681364451120249 -6.524628262705644 7.84532792538363 1 0 -1
551 151 2 -2.7288643355331472 -5.901458504341094 7.893107072266394 0 0 0
58 12 3 -4.339870704332382 -5.563304360035044 7.719847764660593 0 0 0
304 68 4 -2.661988647755396 -5.495087171173185 7.207312508332388 0 0 -1
552 151 4 -2.865177352872307 -5.761324026911298 7.432910277906229 0 0 0
302 68 2 -2.432747171414882 -5.609671531190716 6.7779888891771 0 0 -1
1462 454 4 -7.92498111752585 -0.817809572249586 0.3961977407277374 1 1 0
843 248 4 -7.191690569513346 -4.639610404456902 7.036688679268419 0 0 0
829 243 4 -7.227146374496039 -4.6656671623950094 7.46306490891875 0 0 0
842 248 2 -6.867238800970322 -4.473307394934552 6.694527373868301 0 0 0
844 248 4 -6.542787032427297 -4.307004385412202 6.352366068468182 0 0 0
631 177 4 -6.315599907923385 -4.0240723993028125 6.22212452424496 0 0 0
801 234 4 -4.592187276261619 -4.949382352590719 6.821023480271839 0 1 0
490 130 4 -4.482599489430671 -4.7807832126420235 6.455034290882666 0 0 0
469 123 4 -0.6080550279082636 -3.661577698195088 6.3451210240116 0 0 0
57 12 3 -4.357464693300851 -6.314206869646875 7.692720792643215 0 0 0
1108 336 4 -0.1719575130992333 -0.7422091015119358 7.889884414840905 0 0 0
1185 362 4 -2.3812850362372555 -0.04954115672395493 5.571951675899847 0 0 0
464 122 2 -5.6913849352232875 -6.64504424358748 0.13076974864993818 0 0 0
466 122 4 -6.132153798610607 -6.409801651868605 0.11118066726165489 0 0 0
465 122 4 -5.250616071835968 -6.8802868353063555 0.15035883003822148 0 0 0
1518 473 4 -3.8619770157321156 -1.1826517536537349 0.24280670675965177 1 0 0
394 98 4 -1.1607367387600884 -7.645639666029777 0.03339696643296522 0 0 0
1316 406 2 -0.14799333057888123 -2.888175864390623 0.503993895271045 0 0 0
1147 349 4 -0.12519908972942956 -4.015611971073888 7.581391304437241 0 0 0
867 256 4 -7.279390309356009 -7.702073535464219 1.790126841216042 0 1 0
866 256 2 -6.972098309794486 -7.870483952795558 1.433462351338279 0 1 0
1598 500 2 -0.08953045360052068 -0.06699744093954901 3.350666453656034 0 0 0
56 12 1 -4.2785883210545865 -5.952221491649098 7.965383778794754 0 0 0
895 265 4 -4.134193018721733 -4.333448158366161 0.030814891410236328 0 1 0
827 243 2 -7.30563485003242 -4.474858954549489 7.918511708256231 0 0 0
514 138 4 -6.467917004887346 -6.198195194368858 0.0565556793277881 0 0 0
913 271 4 -4.441468839373085 -4.095248561884121 0.060703332372673016 1 0 0
484 128 4 -4.560957528759123 -2.716163493848322 0.11001736341271917 0 0 0
254 52 2 -3.855902937815955 0.9819034817390125 -7.53122665146186 0 0 0
255 52 4 -3.3885913684236844 0.9223237807016345 -7.363685145152439 0 0 0
735 212 4 -3.317622282144608 1.102784595373505 -7.007071540867036 0 0 0
256 52 4 -4.323214507208226 1.0414831827763908 -7.698768157771281 0 0 0
734 212 2 -3.2693707278757014 1.368786350841534 -6.58645906649358 0 0 0
763 221 4 -0.4076894521495818 1.445362218106298 -7.1200999535104295 0 0 1
1448 450 2 -7.316298184280266 2.9543937674345324 -7.542686646151075 1 0 1
1450 450 4 -7.142580820626112 3.404103410337468 -7.675289491690543 1 0 1
1449 450 4 -7.490015547934421 2.5046841245315967 -7.4100838006116065 1 0 1
761 221 2 -0.7027818398484428 1.6965821218736623 -6.804174261814896 0 0 1
762 221 4 -0.9978742275473038 1.9478020256410267 -6.488248570119362 0 0 1
539 147 2 -7.682264272401224 3.986627298191524 -7.988599527854498 0 0 1
540 147 4 -7.4145525086242365 3.697100822371813 -7.6811831468094525 0 0 1
982 294 4 -7.253920910443539 0.03905578726219294 -0.2346170389208361 1 0 0
766 222 4 -4.806519346619065 3.4979477400191734 -7.900841567173729 0 0 1
764 222 2 -4.539149390025265 3.766408279363552 -7.57458668962252 0 0 1
1476 459 4 -5.694052322197857 4.7733683789857855 -7.820595365407283 1 0 0
415 105 4 -1.0761284641616884 0.3018056069624392 -1.4144808139410918 0 0 0
486 129 4 -4.382069206597288 3.7731607967198117 -6.936955332492688 0 0 0
765 222 4 -4.2717794334314645 4.034868818707931 -7.248331812071311 0 0 1
485 129 2 -4.132571379153819 3.6362684031244425 -6.5258454850349565 0 0 0
569 157 2 -1.3031536249975753 4.580564367898594 -6.7293750245762345 -1 0 0
571 157 4 -1.5503120048896126 4.670889428104553 -7.154526901848267 -1 0 0
651 184 4 -5.604871968516859 5.128464737325133 -7.9856676516980665 0 0 0
650 184 2 -5.15465462590109 5.341016641093273 -7.939558730516431 0 0 0
426 109 4 -2.0538983707918765 0.8985170743371986 -3.273590790292005 0 0 0
1306 402 4 -5.612046838325071 0.013388303945538332 -2.1970651882724237 1 0 0
1063 321 4 -1.40700198840626 7.813172344478556 -5.271841604998254 0 -1 0
1472 458 2 -1.5117423457794563 7.903297596365955 -3.469391728494108 0 0 1
1233 378 4 -4.357917330501387 6.3344312289745535 -6.941437356998024 1 -1 1
626 176 2 -3.250702747769543 5.887733136264224 -7.868379531973818 0 0 0
720 207 4 -2.506075408702402 5.993338509268227 -7.918381137927328 0 0 0
628 176 4 -2.8171850797729148 6.0093533842883975 -7.650960703890084 0 0 0
1278 393 4 -0.936787191050575 5.901469013958621 -7.3624335464853665 0 0 0
400 100 4 -0.7328100690657751 5.578817315063873 -7.512139754249293 0 -1 0
398 100 2 -0.29272772100322186 5.433882606241046 -7.70007979017084 0 -1 0
1277 393 2 -0.935241415634551 6.11980092561577 -6.912623823457398 0 0 0
1279 393 4 -0.933695640218527 6.33813283727292 -6.46281410042943 0 0 0
1234 378 4 -4.823980546786565 7.022857303646553 -7.497184258147834 1 -1 1
1083 328 4 -6.000026742419445 7.727464285777629 -6.573103884335628 1 -1 0
1034 312 2 -5.431034168704882 7.360509979336482 -7.0197672563665305 1 0 0