LAMMPS data file via write_data, version 2 Aug 2023, timestep = 9000000, units = lj

15759 atoms
4 atom types
10666 bonds
1 bond types
6293 angles
2 angle types

-16.594292 16.594292 xlo xhi
-16.594292 16.594292 ylo yhi
-16.594292 16.594292 zlo zhi

Masses

1 1
2 1
3 1
4 1

Bond Coeffs # harmonic

1 100 0.5

Angle Coeffs # harmonic

1 100 180
2 100 109.471

Atoms # full

3052 858 2 0 -15.169056250774327 -15.54366510579045 -16.51611076230591 0 0 0
157 32 3 0 -15.878752706248731 -15.168130073853142 -16.467007452159702 0 0 0
159 32 3 0 -16.26552910464375 -15.448241952793897 -15.827864701244781 0 0 0
156 32 1 0 -16.079173935773415 -15.053169202454468 -16.045548101962083 0 0 0
3054 858 4 0 -14.713053600910182 -15.762927382428446 -16.356534365897154 0 0 0
2572 698 2 0 -14.497985533392129 -15.554839620907748 -15.660886659524504 0 0 0
2573 698 4 0 -14.404362169944942 -15.740560116781495 -16.12143478233341 0 0 0
3183 901 4 0 -14.367208434697693 -15.830250095023347 -16.523886204890143 0 0 0
2574 698 4 0 -14.604557104339243 -15.360423774575157 -15.19408648867917 0 0 0
2889 803 4 0 -14.925186815360506 -15.167032406088964 -15.066256157354688 0 0 0
2326 616 2 0 -10.60149213141407 -15.916853188808837 -15.962464221076825 0 0 0
2328 616 4 0 -10.682257051847017 -15.936002632194132 -16.453160475290137 0 0 0
2327 616 4 0 -10.520199210694779 -15.907063962055288 -15.459109733370383 0 0 0
10643 3388 4 0 -10.746249648330048 -15.73652517865462 -15.172371098594388 0 1 0
1301 274 4 0 -4.464211933406045 -15.366039717730713 -15.461565484289093 0 0 0
14358 4626 4 0 -4.562849314051939 -15.095313513269824 -15.724193126688432 0 1 1
2770 764 2 0 0.5082237124784197 -15.90377300534 -15.840718796600546 0 0 0
2771 764 4 0 0.7039692398960192 -15.995705645238123 -15.387322747718796 0 0 0
3260 927 4 0 1.1010517281161194 -16.03439641727504 -15.302534965879472 0 0 0
2900 807 4 0 0.8272379562803567 -16.168076999486598 -15.054799337251136 0 0 0
2772 764 4 0 0.31369076127017126 -15.80612681897925 -16.284893297153253 0 0 0
3605 1042 4 0 0.03651267135104106 -15.688796796413577 -16.580525562728273 0 0 0
3259 927 2 0 1.6340178126018743 -16.014198886032975 -15.364711821452515 0 0 0
3221 914 4 0 2.107069896877907 -16.0231872699369 -15.836939983334295 0 0 0
3220 914 2 0 2.5554387668620406 -15.978097229495747 -16.0205832886003 0 0 0
3261 927 4 0 2.1154206604427244 -15.99057239004438 -15.421367764065765 0 0 0
3222 914 4 0 3.0297657015982438 -15.937236748462702 -16.219632764097078 0 0 0
2906 809 4 0 3.3996884325509105 -16.015412639181314 -16.275110237908272 0 0 0
2225 582 4 0 3.295014663595802 -15.639551096018533 -16.292192139821964 0 0 0
2905 809 2 0 3.5644007742551826 -16.464740513330682 -16.20541227688472 0 0 0
9566 3029 4 0 9.901479145834408 -15.190879116512077 -15.15543637420023 0 1 0
2373 631 4 0 10.69580262263836 -16.465302727552995 -15.16234920929737 0 0 0
4119 1213 4 0 10.763888482232439 -1.4228514177668148 -6.327243578329889 0 0 0
10827 3449 4 0 11.371227544194866 -15.705124305225635 -15.527752106251198 0 1 0
10825 3449 2 0 11.191629907073821 -16.155868662038017 -15.46480189071819 0 1 0
10388 3303 4 0 11.358773676234494 -15.420654812628817 -15.783427063671263 0 1 0
10387 3303 2 0 11.428910587431675 -15.418966125148403 -16.271288820858885 0 1 0
760 152 3 0 11.543676966223115 -15.38748681764163 -15.408966043864309 0 1 0
8679 2733 4 0 13.279320290240948 -15.197739931168089 -16.007125718332357 0 1 0
1711 411 2 0 12.855673306635106 -15.04874537046968 -16.56628353008115 0 0 0
10465 3329 2 0 14.856133079151256 -15.45438078083796 -15.639214900434046 0 1 0
10466 3329 4 0 14.36290630348982 -15.408803568503759 -15.61053887650341 0 1 0
8677 2733 2 0 13.770380341988607 -15.266855632189731 -16.027991056284595 0 1 0
8678 2733 4 0 14.284077541370205 -15.338941906482468 -16.027743933796057 0 1 0
10467 3329 4 0 15.380492806867046 -15.507835609079729 -15.688789863622802 0 1 0
9557 3026 4 0 15.537721173201096 -15.842589269552212 -15.518638957271042 0 1 0
9556 3026 2 0 15.737391626363705 -16.22993516056723 -15.771248489858337 0 1 0
1599 373 4 0 15.749007269344286 -15.531267348690351 -15.64477767334443 0 0 0
3350 957 4 0 15.525831632433663 -15.522568392982446 -15.337040115029236 -1 0 0
1597 373 2 0 16.060711820297847 -15.130007573248575 -15.810753265171863 0 0 0
2888 803 4 0 -15.70223565091773 -14.64761626710193 -15.428740653189777 0 0 0
160 32 3 0 -15.751276395671843 -14.871140256032897 -15.76862626338154 0 0 0
158 32 3 0 -16.455541228375353 -14.697909691835342 -16.129779274080846 0 0 0
2887 803 2 0 -15.307585614121361 -14.906616986394233 -15.240143479772694 0 0 0
1669 397 2 0 -9.05677232500902 -13.65270733466156 -15.642265347057105 0 0 0
1670 397 4 0 -9.093677005709413 -13.88266401339902 -16.066083029704956 0 0 0
2646 722 4 0 -8.89756088772878 -14.050187025233589 -16.36191307219044 0 0 0
1390 304 2 0 -7.2839979605790806 -14.791875889048052 -16.208608563609584 0 0 0
1391 304 4 0 -7.051723510496329 -14.581030228311446 -15.803840687354102 0 0 0
2785 769 2 0 -6.283831719071608 -14.508701832718197 -15.920931774961954 0 0 0
2786 769 4 0 -6.765896851532469 -14.338499898069701 -15.887028280962067 0 0 0
2475 665 4 0 -6.960471836561111 -14.358924194899023 -15.522385869246463 0 0 0
2473 665 2 0 -7.283528069658842 -14.268174232934353 -15.123104637809924 0 0 0
2787 769 4 0 -5.809262473757897 -14.691466885690582 -15.936542642793677 0 0 0
13767 4429 4 0 -5.7898487286133795 -14.708857380300861 -16.33151819017525 0 1 1
14357 4626 4 0 -5.486054721455085 -14.832170231075002 -16.118738537219627 0 1 1
14356 4626 2 0 -5.021188311768713 -14.963822762394413 -15.913025425325662 0 1 1
6129 1883 4 0 -4.230774695666692 -15.024136501078345 -15.52676810958789 0 0 1
6127 1883 2 0 -3.9974953395741033 -14.568872884819166 -15.599238347297005 0 0 1
6128 1883 4 0 -3.7744395767407863 -14.10788168815285 -15.67144552860462 0 0 1
1361 294 4 0 -3.3886213782447228 -14.12039341777446 -15.55960979246998 0 0 0
2867 796 4 0 -3.525250005537924 -13.971318860387314 -15.896828413217102 0 0 0
1360 294 2 0 -3.2050421171167978 -13.867189919057648 -15.171551486552731 0 0 0
2866 796 2 0 -3.308227259693431 -13.656361480122964 -16.229202405226903 0 0 0
6949 2157 2 0 -1.3971833047945985 -13.795071911282317 -16.51344015519228 0 0 1
2224 582 2 0 3.2537923392295114 -15.140273164705382 -16.28430366199656 0 0 0
2226 582 4 0 3.2021493637097427 -14.632096946606218 -16.285778359416245 0 0 0
1521 347 4 0 3.161364958325929 -14.29384272458007 -16.11859481156381 0 0 0
1519 347 2 0 3.2089528659230964 -13.787365026091345 -16.136700155924466 0 0 0
759 152 3 0 11.55393672475013 -14.572271781876852 -15.571540612950397 0 1 0
756 152 1 0 11.58775502044413 -14.923620524114433 -15.205507420800442 0 1 0
1712 411 4 0 13.033737347851433 -14.909818670715888 -16.15037465892341 0 0 0
1789 437 2 0 12.737710129646954 -14.856285345807368 -15.41160038499947 0 0 0
1791 437 4 0 13.071946307716686 -14.971929226786678 -15.759066938648793 0 0 0
1790 437 4 0 12.386419409150298 -14.740542228371304 -15.074969514842392 0 0 0
2690 737 4 0 16.518288038707645 -14.38555566721398 -16.064089834428493 0 0 0
1598 373 4 0 16.363994868995945 -14.758169381081988 -15.978527123978173 0 0 0
2689 737 2 0 16.11906148342666 -14.097490223449554 -16.146018328879858 0 0 0
2691 737 4 0 15.715158838539518 -13.786648868618277 -16.222761436968618 0 0 0
7301 2274 4 0 15.524353347211035 -13.654868870660303 -16.53580756181593 -1 0 1
2559 693 4 0 15.370775760710183 -13.596586538534195 -16.15947835728857 0 0 0
1671 397 4 0 -9.0020778275806 -13.414573395781092 -15.215080249367885 0 0 0
2868 796 4 0 -3.09064939800879 -13.354025542263406 -16.5577820742486 0 0 0
6079 1867 2 0 -2.3438483635953604 -13.176245955242322 -16.523648597555496 0 0 1
6081 1867 4 0 -1.8930351875399125 -13.191145855905283 -16.279126838571266 0 0 1
2181 567 4 0 -1.6339496731108982 -13.103776445509936 -16.012962195969987 0 0 0
6951 2157 4 0 -1.5980922555868133 -13.445419212561678 -16.201624421463865 0 0 1
2343 621 4 0 -1.5825619561321587 -12.240140861281107 -15.097826678595625 0 0 0
2180 567 4 0 -1.3459100152835874 -12.441311345375814 -15.32999500519683 0 0 0
2179 567 2 0 -1.493873795019761 -12.770047414075925 -15.668100669583776 0 0 0
1668 396 4 0 2.584582531194776 -12.242149716525255 -15.564001708158045 0 0 0
1666 396 2 0 2.872605232876993 -12.634438787860917 -15.750000234079936 0 0 0
6133 1885 2 0 2.080136867962159 -12.151629819990484 -15.087231008875442 0 0 1
1667 396 4 0 3.1456612955832335 -13.002647319222417 -15.92841863316335 0 0 0
1520 347 4 0 3.247087818600476 -13.291124721515544 -16.159818145158248 0 0 0
6395 1972 4 0 3.3354563240329886 -12.936371352211538 -16.283793417124414 0 0 1
1204 242 2 0 14.319638511780878 -12.509886267432552 -16.116083258379167 0 0 0
1206 242 4 0 14.44460814872 -12.937470927870368 -15.857913670040205 0 0 0
2558 693 4 0 14.55689142845641 -13.263005856896273 -15.674766110321093 0 0 0
1205 242 4 0 14.19851755085497 -12.071964374623304 -16.366434839266585 0 0 0
2557 693 2 0 14.973397587466993 -13.43625259985618 -15.926775154488444 0 0 0
1262 261 4 0 -15.229274132557558 -11.125366213389501 -16.418326390877215 0 0 0
10745 3422 4 0 3.200148424766522 -0.0024562635845590012 -6.75527705115968 0 0 0
1547 356 4 0 -14.898671274097248 -11.345500895318157 -16.38281464312603 0 0 0
1546 356 2 0 -14.373756766573198 -11.30961866873351 -16.510923548110664 0 0 0
9795 3105 4 0 3.5129647813750005 -0.05708538391591401 -6.5175516336995605 0 0 0
2794 772 2 0 -12.099935554679702 -11.834598019775287 -16.25465189650906 0 0 0
6847 2123 2 0 -12.221710467205924 -11.116264195321465 -15.312984864917707 0 0 1
6848 2123 4 0 -12.40302877785738 -10.673915442596268 -15.206636013453771 0 0 1
6849 2123 4 0 -12.037707867680364 -11.557698186016486 -15.421572649880648 0 0 1
11100 3540 4 0 13.541126846942246 -16.563315762825845 -7.5429637085235495 0 1 0
2796 772 4 0 -12.017650854236253 -11.75912933436538 -15.778681294539133 0 0 0
3417 979 4 0 -10.786898177394582 -11.295324286660241 -15.626727733045966 0 0 0
3416 979 4 0 -11.69653830959365 -11.765392048133279 -15.538576508397735 0 0 0
3024 848 4 0 -10.915031759714571 -10.938350778285491 -15.590685906730343 0 0 0
3415 979 2 0 -11.239981393029941 -11.537639042943258 -15.588182772812676 0 0 0
3022 848 2 0 -10.534459729918323 -10.688182081644023 -15.431927297247755 0 0 0
6657 2059 4 0 -9.858889535803579 -10.662864487086736 -15.122843698997382 0 0 1
2066 529 4 0 -1.4345069572441924 -12.097781108531276 -15.451806034168035 0 0 0
2065 529 2 0 -1.3448170773037174 -11.629112554071387 -15.618717477876006 0 0 0
2067 529 4 0 -1.246936971199406 -11.185795170201644 -15.771906126547908 0 0 0
6413 1978 4 0 -1.0661895640658872 -11.080741819578368 -16.103169364089947 0 0 1
6135 1885 4 0 2.2822614286901466 -11.982789254480782 -15.503009951902916 0 0 1
6078 1866 4 0 2.6046683309381833 -11.833733875597895 -15.639296843257712 0 0 1
6076 1866 2 0 2.7997449747990215 -11.512528619154262 -15.96599587423871 0 0 1
6077 1866 4 0 3.0225805499586684 -11.165581905313866 -16.323084973754874 0 0 1
8444 2655 4 0 3.1227119535788765 -10.803009409519648 -16.408806679233965 0 0 1
1592 371 4 0 7.124932175360523 -10.845071000347913 -15.175462563748304 0 0 0
2432 651 4 0 7.17610123205327 -11.17973806577048 -15.390676105030208 0 0 0
2735 752 4 0 6.884014568950349 -11.164068919489427 -15.104522478949397 0 0 0
2431 651 2 0 7.665239032975065 -11.29105178480639 -15.384069594191034 0 0 0
7551 2357 4 0 8.394393365247112 -11.522186603764547 -15.134200348629712 0 0 1
2433 651 4 0 8.133144932941528 -11.396703392527847 -15.386351383840879 0 0 0
7549 2357 2 0 8.79337577728666 -11.19604353565304 -15.226853525082685 0 0 1
8000 2507 4 0 9.488297416605265 -11.044974095432194 -15.20685229023446 0 0 1
7550 2357 4 0 9.153586139646533 -10.888757094203696 -15.313065053148993 0 0 1
7999 2507 2 0 9.893746699383348 -10.825692345051051 -15.005907330304437 0 0 1
3575 1032 4 0 11.350803030244949 -12.1384991588895 -15.705443071580662 0 0 0
3574 1032 2 0 11.37045837779074 -11.980017630042274 -15.230391750711764 0 0 0
2643 721 4 0 11.305455922776314 -11.971898523311907 -16.081858076757175 0 0 0
2641 721 2 0 11.32439092572694 -11.740996056696812 -16.52748056080485 0 0 0
2983 835 2 0 13.298098453029384 -11.161084291511823 -15.054808406905105 0 0 0
1631 384 4 0 14.15803201883465 -11.680324426286086 -16.464269509438573 -1 0 0
3497 1006 4 0 13.830207754447006 -10.71570889662479 -15.597624207173512 0 0 0
1630 384 2 0 13.999826818821267 -11.37155465742062 -16.12189727294434 -1 0 0
1632 384 4 0 13.841853847636285 -11.06333492969399 -15.77635665268594 -1 0 0
3401 974 4 0 14.0129830749284 -11.045295666951942 -15.421069188207314 0 0 0
2985 835 4 0 13.630783403442523 -11.028756859307508 -15.44947787196864 0 0 0
3400 974 2 0 14.408885779070193 -11.003956666548302 -15.148532010602747 0 0 0
8493 2671 4 0 -7.978222297810047 -0.05223126989945012 -14.977538495389188 0 0 0
94 19 3 0 -16.528582502567566 -9.613738980465802 -15.356573062256807 0 0 0
2039 520 4 0 -12.68023884304877 -10.381779501305955 -15.273023627655233 0 0 0
2038 520 2 0 -12.779298974118264 -10.245596789404768 -15.743942972637575 0 0 0
2040 520 4 0 -12.87798454142946 -10.10163424896389 -16.226896086258506 0 0 0
3591 1037 4 0 -12.320626537702518 -10.277096697292842 -15.213176954938374 0 0 0
1357 293 2 0 -1.1534854076430925 -0.9902276463040681 -6.874117342055378 0 0 0
3386 969 4 0 -13.187575430563248 -10.148834021806238 -16.511100979511074 0 0 0
3023 848 4 0 -10.147822591642527 -10.446226725542687 -15.266742466971507 0 0 0
7767 2429 4 0 -9.777084294035884 -10.346775798825929 -15.311061927156045 0 0 1
7765 2429 2 0 -9.624883953338248 -9.94882939007613 -15.597102633389989 0 0 1
1446 322 4 0 -9.480103432297913 -9.189667229409057 -15.995911348132847 0 0 0
7766 2429 4 0 -9.474264880242426 -9.560783638778467 -15.879438037592173 0 0 1
2916 812 4 0 -9.223715962612532 -9.44798945674992 -16.155615065806426 0 0 0
2914 812 2 0 -8.812436903981803 -9.246111216707915 -16.00207813525638 0 0 0
1928 483 4 0 -8.185955706395044 -9.11244076785243 -15.516590572075255 0 0 0
1927 483 2 0 -8.114829883634352 -9.066746199987616 -15.047699355310138 0 0 0
1643 388 4 0 3.5690910786601875 -9.53514916075688 -16.32855882653963 0 0 0
1642 388 2 0 3.8950639377787577 -9.218184876574881 -16.14167463041116 0 0 0
8445 2655 4 0 3.3045110123217216 -9.813624337689495 -16.310651391649877 0 0 1
8443 2655 2 0 3.214868855594886 -10.306461909403911 -16.36059273552631 0 0 1
1887 469 4 0 3.234377685822532 -9.473556341884814 -16.518585911696675 0 0 0
1555 359 2 0 5.968977613519232 -9.662881504752711 -15.076692144739674 0 0 0
1556 359 4 0 5.4669983403671045 -9.63627062213595 -15.001766189303023 0 0 0
1591 371 2 0 6.987598819634974 -10.350305686389731 -15.217184404811851 0 0 0
7204 2242 2 0 6.896052011688016 -9.20765288860162 -15.660533171932842 0 0 1
7205 2242 4 0 6.854385868711857 -9.482845272409937 -15.241710474951152 0 0 1
1593 371 4 0 6.840231097459441 -9.854914100219556 -15.246762897629146 0 0 0
1557 359 4 0 6.508549407046813 -9.681202436756214 -15.150410776985956 0 0 0
1859 460 4 0 10.573809719234996 -9.58825151081774 -15.504740770020993 0 0 0
8446 2656 2 0 11.08317317508058 -9.907182927588524 -16.128302339229375 0 0 1
8447 2656 4 0 10.786315104515923 -9.77325740551207 -15.766989860500457 0 0 1
3596 1039 4 0 10.552138103399452 -9.427456096568386 -15.869858003095082 0 0 0
1858 460 2 0 10.58978186825921 -9.936866787209517 -15.145632207028548 0 0 0
1257 259 4 0 13.476211363389455 -9.66064070754235 -15.270493887808106 0 0 0
3498 1006 4 0 13.555874618972087 -9.726758834165794 -15.645484345461787 0 0 0
1255 259 2 0 13.10004501338408 -9.461855487871272 -15.048974483333707 0 0 0
3496 1006 2 0 13.695213736909958 -10.233677552173818 -15.627698505804728 0 0 0
1813 445 2 0 14.147453401390749 -9.205895234657403 -15.38839998601889 -1 0 0
1814 445 4 0 13.857272034619102 -9.603485052617824 -15.384553323275204 -1 0 0
93 19 3 0 16.40742601043995 -10.357149131535184 -15.268341409426492 -1 0 0
92 19 3 0 16.261499768600583 -9.969142815881137 -15.963636302563422 -1 0 0
91 19 1 0 16.299943462946356 -9.920412270782599 -15.465178227310078 -1 0 0
2244 588 4 0 16.40209195913193 -9.974526797061294 -16.34618025514096 -1 0 0
3599 1040 4 0 16.069026631472397 -9.789254772743016 -16.26258101620227 0 0 0
3598 1040 2 0 15.59805773861986 -9.60274300358599 -16.354304408918217 0 0 0
95 19 3 0 15.850197211436775 -9.74014695736906 -15.280042225638125 -1 0 0
1636 386 2 0 15.228346602920642 -9.120339292560386 -15.240706270374641 -1 0 0
1637 386 4 0 15.658450039744276 -9.405963764428652 -15.157913731636327 -1 0 0
3600 1040 4 0 15.125114761156425 -9.424491382990036 -16.44919519634208 0 0 0
2655 725 4 0 15.490210738082887 -9.780681740603402 -15.087333267537183 0 0 0
2275 599 2 0 -10.669222695699055 -8.042251721822916 -15.510913590526748 0 0 0
2978 833 4 0 -11.347160629269744 -7.684437790340221 -15.079943820464688 0 0 0
2277 599 4 0 -11.151059183897544 -7.938091495276796 -15.351370661998544 0 0 0
2276 599 4 0 -10.204176639740691 -8.141598618429555 -15.650625889738398 0 0 0
1445 322 4 0 -10.209280611236148 -8.541630747472809 -15.741880825343454 0 0 0
1444 322 2 0 -9.861636808335389 -8.857442894656131 -15.861815377556946 0 0 0
2915 812 4 0 -8.394965872523892 -9.029335191199317 -15.853050577550682 0 0 0
7425 2315 4 0 1.4517415778080351 -7.455983065876747 -16.54969387604822 0 0 1
7012 2178 2 0 3.0543477215784938 -7.522876573561072 -15.994521731355652 0 0 1
1644 388 4 0 4.2424718657212 -8.891682601758731 -15.940223623738914 0 0 0
1455 325 4 0 4.2568451776688825 -8.516652548612702 -15.788562542507066 0 0 0
1454 325 4 0 3.487547251659645 -7.935161365764729 -15.475894087523203 0 0 0
1453 325 2 0 3.880772243346614 -8.238653193639651 -15.633313461701785 0 0 0
7013 2178 4 0 3.35533505697503 -7.562785245420356 -15.593683786493184 0 0 1
3324 948 4 0 3.1759560645641156 -7.787242139152273 -15.309689461201922 0 0 0
1944 488 4 0 4.512315494215295 -8.603129861649858 -16.076755888686808 0 0 0
1942 488 2 0 4.974627038742122 -8.361063512128183 -16.138171798379947 0 0 0
1943 488 4 0 5.413040017925207 -8.124026667830703 -16.189205475171498 0 0 0
8321 2614 4 0 5.650997406643688 -7.793076054460012 -16.255299444010102 0 0 1
7370 2297 4 0 5.808455774911635 -8.163051751582707 -16.26105955451788 0 0 1
7206 2242 4 0 6.945393092704554 -8.904727515643952 -16.121816621520807 0 0 1
7369 2297 2 0 6.238655921318235 -8.411741978443413 -16.16655075311673 0 0 1
7371 2297 4 0 6.653325204707568 -8.650438969075585 -16.073323663946482 0 0 1
7935 2485 4 0 7.023900365593349 -8.539431893668043 -15.959628501942076 0 0 1
7933 2485 2 0 7.28552217404757 -8.133615025446781 -15.89921539562013 0 0 1
7934 2485 4 0 7.564568170538384 -7.696817875788516 -15.8221226044113 0 0 1
1414 312 2 0 9.98076671606666 -7.778003625267532 -15.465564966548841 0 0 0
1416 312 4 0 10.331368031490072 -8.121666708941088 -15.616660217673724 0 0 0
3597 1039 4 0 10.525040984958315 -8.480593749043466 -15.566601567989226 0 0 0
3595 1039 2 0 10.540155567857976 -8.957760530274859 -15.72455560514039 0 0 0
2397 639 4 0 10.707461224202182 -8.154035332892771 -15.705024574075821 0 0 0
2395 639 2 0 11.03179180827109 -7.861165072432376 -15.930403029432851 0 0 0
2638 720 2 0 12.135940998467268 -7.623451600059763 -15.630012439360392 0 0 0
2386 636 2 0 13.308832409093563 -7.774285706467457 -15.470461824315931 0 0 0
2388 636 4 0 12.863758829424834 -7.8227802950298955 -15.249049031448102 0 0 0
2639 720 4 0 12.486726296978338 -7.716947034243983 -15.29491764388882 0 0 0
1451 324 4 0 12.578576299147665 -8.028753452856932 -15.061814201824463 0 0 0
1450 324 2 0 12.52611580891104 -8.491412508285197 -15.03102129547712 0 0 0
1452 324 4 0 12.454647393459942 -8.990784739415357 -15.007000505987609 0 0 0
1815 445 4 0 14.427124765557917 -8.814712041789377 -15.397003889737777 -1 0 0
3298 940 2 0 14.38410752658212 -8.176393132425595 -15.443184514957679 0 0 0
3299 940 4 0 14.611467488416817 -8.540100606585582 -15.182287327961996 0 0 0
3300 940 4 0 14.138805167030572 -7.801603182534058 -15.696884968204476 0 0 0
2387 636 4 0 13.764773566586964 -7.71143946116853 -15.69577264594245 0 0 0
7412 2311 4 0 13.922649558242423 -7.8275411557066965 -16.034924653038402 0 0 1
7411 2311 2 0 13.873360171235488 -8.138420461101404 -16.439028705292614 0 0 1
1638 386 4 0 14.807351858091476 -8.84788608903701 -15.316096074951373 -1 0 0
1358 293 4 0 -0.6638137177373281 -0.8659174610488278 -6.85311996065333 0 0 0
2566 696 2 0 -7.931170151759674 -6.388190150132677 -15.264878771644867 0 0 0
2568 696 4 0 -7.800501893865935 -6.805061497925286 -15.008910794332104 0 0 0
2142 554 4 0 -7.474007508571297 -6.980824312183924 -15.139375528524802 0 0 0
2756 759 4 0 -4.668612481285967 -6.347245749450208 -16.55229515405045 0 0 0
2618 713 4 0 -3.5318239125440454 -6.708974955492578 -15.871469773286544 0 0 0
2617 713 2 0 -3.051796754929737 -6.547389738843012 -16.007152863988896 0 0 0
2755 759 2 0 -4.221577162589408 -6.430650930196586 -16.331012649866647 0 0 0
2757 759 4 0 -3.7707950307731695 -6.518421960780847 -16.116848916803015 0 0 0
178 36 3 0 -1.8051867504531371 -6.945301956547103 -15.64895652214888 0 0 0
176 36 1 0 -2.002509031869808 -6.47662188031863 -15.675629859532906 0 0 0
177 36 3 0 -2.1977068055712032 -6.4004831452390825 -16.12478879912473 0 0 0
2619 713 4 0 -2.603796696441876 -6.392978175490504 -16.12625239635986 0 0 0
180 36 3 0 -2.370479751658661 -6.421187606009747 -15.3100899836795 0 0 0
3137 886 4 0 -2.3773663556128946 -6.2160515030805215 -16.411966191883636 0 0 0
7014 2178 4 0 2.7693186766992794 -7.491289707251353 -16.389100481044068 0 0 1
3002 841 4 0 -0.2691551285765939 -0.7801641239216264 -6.781526472488795 0 0 0
8320 2614 2 0 5.871477047761491 -7.356449192805565 -16.207011527747646 0 0 1
7826 2449 4 0 7.614159265634715 -7.382624942966827 -15.618140741479111 0 0 1
8207 2576 4 0 7.357176773822025 -7.365857258779622 -15.908909348402755 0 0 1
8322 2614 4 0 6.102906497085715 -6.901452182412224 -16.145239722405496 0 0 1
8206 2576 2 0 6.909509623049686 -7.1254880806433585 -15.960547731510058 0 0 1
6141 1887 4 0 6.242475758297214 -6.610110131766722 -15.906660061443949 0 0 1
7544 2355 4 0 6.347724273114942 -6.64065174035564 -16.291623283893173 0 0 1
6139 1887 2 0 6.354511567486272 -6.21170538162134 -15.637233487470043 0 0 1
8208 2576 4 0 6.471667720353878 -6.907880253491969 -16.021709357745035 0 0 1
6681 2067 4 0 7.74201081833798 -7.3742921526459755 -15.993145450256774 0 0 1
7825 2449 2 0 7.805474755589161 -7.340654067348488 -15.155628681443698 0 0 1
6679 2067 2 0 8.197122986541268 -7.272862684055828 -16.186975354878243 0 0 1
6680 2067 4 0 8.67015082786218 -7.1525796295615205 -16.39384240872835 0 0 1
6048 1856 4 0 9.04827753864578 -7.041192376370733 -16.422481743289435 0 0 1
1415 312 4 0 9.615822215344853 -7.430766433490764 -15.316843981724036 0 0 0
7893 2471 4 0 9.309495742997038 -7.281807533419393 -15.134464018550611 0 0 1
6047 1856 4 0 9.438178488093941 -7.130712736018765 -15.503450910633418 0 0 1
6046 1856 2 0 9.24481525083918 -7.0843606908737815 -15.960561865301308 0 0 1
2640 720 4 0 11.736212217870257 -7.527976940284243 -15.9973576331621 0 0 0
2396 639 4 0 11.368670425713546 -7.555861828500287 -16.16556147621103 0 0 0
2621 714 4 0 11.695710877441233 -7.502691691305388 -16.365456601780913 0 0 0
3393 971 4 0 11.56813286898096 -7.2088597786199164 -16.134194759396003 0 0 0
3391 971 2 0 11.626852213446954 -6.710315607856836 -16.03169040075795 0 0 0
3392 971 4 0 11.68775426303734 -6.2109062780134074 -15.921214649313486 0 0 0
1475 332 4 0 11.881306876715813 -6.087202238076028 -15.583404998623928 0 0 0
2745 755 4 0 11.495800760494612 -6.1101972545750165 -15.599240457970419 0 0 0
1474 332 2 0 12.233869626587897 -6.224662943720056 -15.24701910382654 0 0 0
2249 590 4 0 14.024136205187933 -7.482987910895915 -15.88094267508766 0 0 0
1406 309 4 0 14.346435941419598 -6.3086676340754355 -16.35371826197273 0 0 0
2248 590 2 0 14.234806493418944 -7.082760183544097 -16.055037409652837 0 0 0
2250 590 4 0 14.44946163672507 -6.6642314681514785 -16.231672330806056 0 0 0
1716 412 4 0 -9.186032053597339 -6.098508718642157 -16.350865348826233 0 0 0
3369 963 4 0 -10.106753015673315 -5.3047211192273505 -15.890324355484301 0 0 0
1575 365 4 0 -10.019664807704634 -5.2538429896232755 -15.505240112177802 0 0 0
3367 963 2 0 -9.829144673676625 -5.637081302921896 -16.164918143494162 0 0 0
3368 963 4 0 -9.548252761583685 -5.960034055582653 -16.449677061140942 0 0 0
3347 956 4 0 -9.997756523838484 -4.944674802801116 -15.758192486159407 0 0 0
3346 956 2 0 -9.69483544016306 -4.578674814784074 -15.913723219240861 0 0 0
2567 696 4 0 -8.063673730502947 -5.977303523500965 -15.515284998413254 0 0 0
1715 412 4 0 -8.400102274504162 -5.929596671482509 -15.708245188698616 0 0 0
1714 412 2 0 -8.805938837667387 -6.018164782650118 -16.042367434699166 0 0 0
2763 761 4 0 -8.160734887580562 -5.599685894794527 -15.590781680352963 0 0 0
2761 761 2 0 -8.090391381205238 -5.098278306283574 -15.623284734299999 0 0 0
2762 761 4 0 -8.015379244139792 -4.592008870871992 -15.652041711070543 0 0 0
1853 458 4 0 -4.749783276089059 -5.970615682873524 -16.510888886928644 0 0 0
1852 458 2 0 -4.919913283670236 -5.493998041927873 -16.39710562258141 0 0 0
1854 458 4 0 -5.081260043664673 -5.039788234405041 -16.27878321590686 0 0 0
179 36 3 0 -1.6362204094208677 -6.128529498681692 -15.593421629206054 0 0 0
2613 711 4 0 -1.6695223559099541 -5.778405680477537 -15.430375228247804 0 0 0
2957 826 4 0 -0.6327651783965945 -6.034253822986363 -16.35366189910541 0 0 0
2958 826 4 0 -1.4100038485735296 -5.829997436963459 -15.73193113940997 0 0 0
2956 826 2 0 -1.025883593446821 -5.936432344761496 -16.048497658860946 0 0 0
6850 2124 2 0 1.2258529210186035 -5.753539626645047 -16.375948020980466 0 0 1
1459 327 2 0 1.7505899428885747 -5.646818682472148 -15.24729168020186 0 0 0
6851 2124 4 0 1.5760239734757122 -5.512986616990329 -16.116157475438364 0 0 1
1837 453 2 0 2.305083317175004 -5.876488507720234 -16.350050953930985 0 0 0
1460 327 4 0 1.781491509810898 -5.548874056379216 -15.757926682850398 0 0 0
1839 453 4 0 1.903655246110864 -5.7440258273919085 -16.085963312428934 0 0 0
6140 1887 4 0 6.479737414405862 -5.777900833867535 -15.34339022923192 0 0 1
3179 900 4 0 6.6583494251502175 -5.5483101507987795 -15.605675574275029 0 0 0
3178 900 2 0 7.088808984727851 -5.4191819779766695 -15.802197164026799 0 0 0
7794 2438 4 0 6.623985694213776 -5.392058799592313 -15.240327642861208 0 0 1
6488 2003 4 0 7.428492387354235 -4.91021628532125 -16.06994030200459 0 0 1
3180 900 4 0 7.53264349919162 -5.274099746995189 -16.01564077932542 0 0 0
2424 648 4 0 7.64353078939713 -4.989313270757345 -15.76224926637938 0 0 0
2262 594 4 0 7.8277686819666785 -5.020517394451061 -16.10473803668575 0 0 0
2422 648 2 0 7.7873744530165085 -4.719081357909107 -15.372438618804036 0 0 0
2260 594 2 0 8.155130038295185 -5.24072001303552 -16.426903683818313 0 0 0
503 101 3 0 9.910304918523428 -4.893871266339833 -15.96226769545387 0 0 1
7679 2400 4 0 10.205380563950692 -4.869530009628266 -15.697761412780642 0 0 1
8121 2547 4 0 9.817913660212747 -4.720234364717996 -15.61997124928541 0 0 1
501 101 1 0 10.15156192555774 -4.793142608895831 -16.406572721679783 0 0 1
505 101 3 0 10.39002741241993 -5.249098520152173 -16.58039634753948 0 0 1
7678 2400 2 0 10.45822229009701 -5.115844500307826 -15.33754776333317 0 0 1
7236 2252 4 0 11.373271663220736 -5.997760159266599 -15.973692793697223 0 0 1
1418 313 4 0 11.68589297843653 -5.840935114994018 -15.830028632934404 0 0 0
2743 755 2 0 11.231652460184666 -5.873666063193427 -15.246374325233077 0 0 0
7234 2252 2 0 11.023916226925309 -5.733660533732758 -16.258011595069675 0 0 1
1417 313 2 0 12.00206622343018 -5.406471096663433 -15.882630061453872 0 0 0
7235 2252 4 0 10.689832213923042 -5.501670741804496 -16.520327686962272 0 0 1
7680 2400 4 0 10.72063612484159 -5.352436082485333 -14.981667693649285 0 0 1
1419 313 4 0 12.301040442850178 -5.018384697310373 -15.926204849879749 0 0 0
2481 667 4 0 12.589269801700937 -4.779979823119111 -16.04551722502014 0 0 0
112 23 3 0 12.332653771844816 -4.628386603545621 -15.77044931931137 0 0 0
2479 667 2 0 12.98649340348646 -4.652585953222081 -16.34329884215061 0 0 0
1405 309 2 0 14.07128329207265 -5.9468900324561735 -16.221914516964492 0 0 0
494 99 3 0 13.941075268222603 -5.340071801664799 -16.372636419906108 0 0 1
1407 309 4 0 13.791709223152012 -5.569106840025157 -16.09442144081209 0 0 0
491 99 1 0 14.087297937986822 -4.8440067816476295 -16.36113309929154 0 0 1
495 99 3 0 14.086102879530674 -4.6805604025298155 -15.852882352065784 0 0 1
492 99 3 0 14.543418918128419 -4.797683446977758 -16.542630108273883 0 0 1
3478 1000 2 0 -14.41539581687385 -3.6543838570260947 -15.850184440939929 0 0 0
3479 1000 4 0 -14.115941561022053 -4.005394614221966 -16.071609598976444 0 0 0
2462 661 4 0 -14.220675520723383 -4.353791057507746 -16.225408069888847 0 0 0
3480 1000 4 0 -14.723869296308063 -3.3067914485582297 -15.633624553427483 0 0 0
2994 838 4 0 -14.447535974363142 -3.0029758250277663 -15.604181007440877 0 0 0
2461 661 2 0 -13.745956006181812 -4.401914172159635 -16.40202089371967 0 0 0
3548 1023 4 0 -12.306093332823815 -3.51683217399385 -16.312578311355686 0 0 0
3547 1023 2 0 -12.652143908590746 -3.8522415802853103 -16.506266671974448 0 0 0
1464 328 4 0 -12.312881721886285 -3.3066203757398815 -15.956019661118999 0 0 0
1462 328 2 0 -12.455925570220119 -3.1418114327851123 -15.50592118418175 0 0 0
3348 956 4 0 -9.375642507344066 -4.20481819795477 -16.081211824661235 0 0 0
131 27 1 0 -9.47462439854128 -3.4759478418016885 -16.39650013543081 0 0 0
133 27 3 0 -9.484941640361654 -3.8224894599003054 -16.033424919582327 0 0 0
134 27 3 0 -9.855220903920706 -3.1702955889969595 -16.351584394030137 0 0 0
2349 623 4 0 -9.09381928008942 -3.921432212423629 -16.06455644175088 0 0 0
132 27 3 0 -9.05202101592886 -3.2251413561436237 -16.378872731535562 0 0 0
2347 623 2 0 -8.68361861482211 -4.120882210752341 -15.882634958601693 0 0 0
2348 623 4 0 -8.275933538912865 -4.315372521508872 -15.69292188074168 0 0 0