LAMMPS data file via write_data, version 2 Aug 2023, timestep = 10000000, units = lj

15759 atoms
4 atom types
10666 bonds
1 bond types
6293 angles
2 angle types

-16.594292 16.594292 xlo xhi
-16.594292 16.594292 ylo yhi
-16.594292 16.594292 zlo zhi
4.263256414560601e-14 0 0 xy xz yz

Masses

1 1
2 1
3 1
4 1

Bond Coeffs # harmonic

1 100 0.5

Angle Coeffs # harmonic

1 100 180
2 100 109.471

Atoms # full

8924 2815 4 0 -15.382974035708457 -15.079415203039565 -16.38844885246649 2 0 0
8923 2815 2 0 -15.311304855239465 -15.201674926246504 -15.891411246269454 2 0 0
9092 2871 4 0 -15.139431594363426 -15.562871218658804 -15.06215782934991 9 1 0
10250 3257 4 0 -15.046438619176396 -15.189909399144017 -15.068250271202707 2 0 0
8925 2815 4 0 -15.233725715563507 -15.337554513980237 -15.383003326187556 2 0 0
3047 856 4 0 -14.857337356790058 -15.429355203422164 -15.326632174275513 2 0 0
3046 856 2 0 -14.326335100191217 -15.494201580449845 -15.311604760304908 2 0 0
3048 856 4 0 -13.838709179297222 -15.542037634006238 -15.296682045025797 2 0 0
2856 792 4 0 -13.583986459803652 -15.300016642805723 -15.486199812863536 2 0 0
2202 574 4 0 -13.492291541070005 -15.403426978923322 -15.121296799984243 2 0 0
2200 574 2 0 -13.305048667026647 -15.900818868944294 -15.063251737902442 2 0 0
2201 574 4 0 -13.137021094990304 -16.353916138236823 -15.003429217564294 2 0 0
3329 950 4 0 -10.651391042732778 -15.078033275973922 -15.216256859036315 2 0 0
3330 950 4 0 -10.046900771334425 -15.478569729417178 -15.872817348064931 2 0 0
3328 950 2 0 -10.358282052968011 -15.27431299324176 -15.533944359811404 2 0 0
9976 3166 2 0 -2.099758136160581 -16.361268341624214 -15.914932323955192 10 1 0
9977 3166 4 0 -1.7629462155276094 -16.080154051983957 -15.643166397486175 10 1 0
10346 3289 4 0 -1.7117979379001191 -15.872417503181756 -15.329543987421332 9 1 0
8912 2811 4 0 -1.7038020536454734 -15.711524091019337 -15.704136685893884 10 1 0
8911 2811 2 0 -1.5392432504790428 -15.322815998370128 -15.944355274841566 10 1 0
13914 4478 4 0 -1.3968986853258176 -15.959292147194752 -15.5931645638514 10 1 1
13912 4478 2 0 -0.95095840112422 -15.995725957741431 -15.312912106482699 10 1 1
13913 4478 4 0 -0.5046082109017505 -16.034731266230715 -15.03799507538087 10 1 1
15262 4928 2 0 0.2904624983293189 -15.742251442046152 -15.131759894827185 10 1 1
15263 4928 4 0 0.6645039735422777 -15.527931274384542 -15.326724486254207 10 1 1
9108 2876 4 0 0.9940631247094665 -15.520464201024982 -15.549099065805631 10 1 0
9106 2876 2 0 1.1767621181444348 -15.647382314219938 -16.013236438524423 10 1 0
689 138 3 0 1.019085661256561 -15.559383840516281 -15.155369669145902 10 1 0
9107 2876 4 0 1.364701233648102 -15.765210489405698 -16.4814734893269 10 1 0
687 138 3 0 1.7910926059848364 -15.805190366175013 -15.330173102450148 10 1 0
14672 4731 4 0 2.683594147834107 -16.530411500542705 -16.033837213203007 10 1 1
3261 927 4 0 3.0635094809040595 -16.398266815076102 -16.100644948687854 0 0 0
8824 2782 2 0 1.6333982444169735 -5.8896392346594055 -7.037311828249342 2 0 0
3259 927 2 0 3.445566767748744 -16.030347902376512 -16.013402739404253 0 0 0
3260 927 4 0 3.831146466170999 -15.651960495139432 -15.928899168378708 0 0 0
1746 422 4 0 4.202115339419397 -15.45211584631788 -15.877920427222247 0 0 0
2900 807 4 0 3.8628671533967314 -15.354977445694722 -15.679652839021458 0 0 0
2771 764 4 0 3.885555263338862 -15.307951869342165 -16.077283520882737 0 0 0
2899 807 2 0 3.539711969793643 -15.151487663938008 -15.29911324410545 0 0 0
1744 422 2 0 4.7286589959358984 -15.327623458592326 -15.930566146188573 0 0 0
1745 422 4 0 5.2438574280338734 -15.190356888440418 -15.972033338234546 0 0 0
6951 2157 4 0 5.458906825180886 -15.328791577454583 -16.312700238788988 0 0 1
2181 567 4 0 5.489378737357956 -15.523031218396808 -15.966784240861994 0 0 0
2179 567 2 0 5.648615006997826 -15.806560833741143 -15.571407929187155 0 0 0
2180 567 4 0 5.80349479890133 -16.093502931960725 -15.163064154527111 0 0 0
6081 1867 4 0 5.6467760988863525 -15.191929890393258 -15.989997332925617 0 0 1
2066 529 4 0 6.0124904055879576 -16.404154742508123 -15.073608443262316 0 0 0
7767 2429 4 0 8.889563793152718 -15.242292147404628 -16.320600490893202 0 0 1
6655 2059 2 0 8.280891431903957 -15.120371880451538 -15.670224102609309 0 0 1
6657 2059 4 0 8.566101952453149 -15.182962611250769 -16.091847557954384 0 0 1
7765 2429 2 0 9.396993403978104 -15.36596309516517 -16.266060826489838 0 0 1
7766 2429 4 0 9.878150526393977 -15.48567886964173 -16.209999373804354 0 0 1
2916 812 4 0 10.150280407789925 -15.771060616664005 -16.171729754003795 0 0 0
2914 812 2 0 10.071424664643029 -16.05930207118872 -15.779096642167955 0 0 0
1446 322 4 0 10.24121413003089 -15.37571365240243 -16.14045382798078 0 0 0
2915 812 4 0 9.974877071280677 -16.373061375647087 -15.371363294192259 0 0 0
1928 483 4 0 9.707561270010832 -16.41153590231849 -15.094709791082366 0 0 0
1444 322 2 0 10.694442311010302 -15.172232762201297 -15.990509508691096 0 0 0
1375 299 2 0 11.242651169542658 -15.438963183759608 -15.124335463115127 1 0 0
1377 299 4 0 11.283347963880747 -15.101811574448138 -15.494529561245178 1 0 0
1293 271 4 0 12.937694203884195 -16.3061286830374 -15.773153644062544 1 0 0
1292 271 4 0 12.89792164942601 -15.274607020318099 -15.798140911655993 1 0 0
1291 271 2 0 12.91107343435213 -15.786969053659387 -15.791473365327398 1 0 0
2378 633 4 0 -15.713216534546984 -15.048739176021453 -16.59105307751248 2 0 0
2377 633 2 0 -16.219624162464505 -14.918213829867302 -16.501622133486133 2 0 0
3456 992 4 0 -15.982466260215206 -13.675639728885162 -16.072309703024597 2 0 0
3454 992 2 0 -15.784855418027087 -13.853222931258315 -16.484818450557473 2 0 0
2383 635 2 0 -14.833666831451012 -14.357652645434266 -16.362759681130914 2 0 0
10879 3467 2 0 -14.720468262027577 -13.900372817252697 -15.37442944911658 2 0 0
2384 635 4 0 -14.600246268375757 -13.923546525045033 -16.22516953922716 2 0 0
10881 3467 4 0 -14.59390615124735 -13.768972660923001 -15.857865772064663 2 0 0
7859 2460 4 0 -14.353630142267534 -13.732507911368991 -16.46934009654942 2 0 1
3630 1050 4 0 -14.267031729598742 -13.813912656699857 -16.06946535410192 2 0 0
3628 1050 2 0 -13.814723845336639 -13.987779538992667 -15.990604715154523 2 0 0
2385 635 4 0 -15.07813478896731 -14.820978301342011 -16.508379958862186 2 0 0
3629 1050 4 0 -13.302284542058414 -14.183247830426177 -15.897448008772473 2 0 0
2854 792 2 0 -13.314118906563596 -14.899107719742881 -15.664124683193247 2 0 0
1402 308 2 0 -13.181794150861938 -13.93567408232174 -15.145055642564612 2 0 0
167 34 3 0 -13.248066101635585 -13.962197504535627 -16.218969024211614 2 0 0
1403 308 4 0 -13.050415448380333 -14.222264051086219 -15.601934058292047 2 0 0
2855 792 4 0 -13.045934006097147 -14.508844917512391 -15.841375828762962 2 0 0
166 34 1 0 -12.85578078537579 -14.218913975811397 -16.407082213861447 2 0 0
1740 420 4 0 -12.68341652460124 -14.358001264195691 -15.757662609950774 2 0 0
170 34 3 0 -12.742914953280717 -14.560075980201127 -16.111616520888113 2 0 0
1738 420 2 0 -12.233812058605384 -14.189053629215477 -15.551489861099183 2 0 0
169 34 3 0 -12.468023428836826 -13.911786218807292 -16.453972219617704 2 0 0
15581 5034 4 0 -12.095531401907664 -13.956161544724054 -16.38307616035583 2 0 1
1739 420 4 0 -11.791896395014174 -14.041800606335723 -15.344859796351699 2 0 0
9965 3162 4 0 -11.419547175078664 -14.012436063941795 -15.145708938188198 2 0 0
2549 690 4 0 -11.639812166480313 -13.702617783855718 -15.183906161191521 2 0 0
9964 3162 2 0 -11.169729532524993 -14.424996045872769 -15.067058020403227 2 0 0
9966 3162 4 0 -10.92311951876081 -14.859872010775652 -14.98826765255884 2 0 0
8913 2811 4 0 -1.3659972606520672 -14.90728527379665 -16.198676244180998 10 1 0
9693 3071 4 0 -1.1690194492529518 -14.59154758161262 -16.374088993063445 10 1 0
2770 764 2 0 3.8666633910896415 -15.0349856324138 -16.519889306890477 0 0 0
6079 1867 2 0 6.09537896881988 -14.91127882469205 -15.908853900528142 0 0 1
6080 1867 4 0 6.531035851601697 -14.642432908090571 -15.837682395510432 0 0 1
2868 796 4 0 6.852885657961018 -14.788696752757627 -15.654554009169585 0 0 0
7416 2312 4 0 6.949384103388972 -14.539968221877226 -15.934845249432577 0 0 1
2866 796 2 0 6.86488564890492 -14.511252644750506 -15.263767143560859 0 0 0
7414 2312 2 0 7.209302000111986 -14.445855413659467 -16.36454966332695 0 0 1
3023 848 4 0 8.557803527984046 -15.140534529765029 -16.464183447297277 0 0 0
6656 2059 4 0 7.9970144063698 -15.054309566862447 -15.258105202197541 0 0 1
2921 814 4 0 8.750839879443976 -14.853925397441392 -16.23412755112508 0 0 0
2920 814 2 0 8.9569225251069 -14.411588262584553 -15.981517699115217 0 0 0
547 110 3 0 7.999762906524108 -13.951952524493816 -15.095257356378331 0 0 1
2595 705 4 0 9.199840932185893 -14.325858417020084 -15.517928491542788 0 0 0
2922 814 4 0 9.15908010304577 -14.011963686952411 -15.750860265904437 0 0 0
20 4 3 0 9.524728278655719 -14.13764618359176 -15.625974995002137 0 0 0
16 4 1 0 10.018094309808994 -14.022542137675105 -15.690936824281357 0 0 0
18 4 3 0 10.306311917373495 -14.309459454723603 -15.382573702822214 0 0 0
17 4 3 0 10.150222303101028 -14.11425103652481 -16.15910999108792 0 0 0
19 4 3 0 10.09175033386148 -13.541071242715548 -15.588516443140378 0 0 0
2413 645 2 0 12.051127967394713 -15.00457684732945 -15.75905817320975 1 0 0
1445 322 4 0 11.141061033524 -14.978932605045546 -15.814975246314933 0 0 0
2414 645 4 0 11.542252260100238 -14.960072260231613 -15.764749278787853 1 0 0
2276 599 4 0 11.286965015817366 -14.720275565727295 -15.537239171668677 0 0 0
2275 599 2 0 11.343442883134312 -14.375408729713612 -15.153273524735802 0 0 0
2415 645 4 0 12.571911718804628 -15.058855669736793 -15.752458476263525 1 0 0
3245 922 4 0 12.891158305622572 -14.92438217731727 -15.93080672199782 1 0 0
1710 410 4 0 12.89957545966362 -14.99759354588443 -15.511143637632014 1 0 0
1708 410 2 0 13.132847750706372 -14.644194233254844 -15.193304011299492 1 0 0
3244 922 2 0 13.237788655562728 -14.743630929158455 -16.252670504727558 1 0 0
2423 648 4 0 13.653958080145642 -14.104528427699597 -15.085145872382753 1 0 0
2422 648 2 0 13.994350837940342 -13.952535287965047 -15.417921267980121 1 0 0
2424 648 4 0 14.375761020267458 -13.77810565601775 -15.802962969085181 1 0 0
6488 2003 4 0 14.556706562001114 -13.850045772922329 -16.17035713444843 1 0 1
6487 2003 2 0 14.185257022359199 -14.065262732780385 -16.481196091196885 1 0 1
3180 900 4 0 14.784232424914979 -13.712681317825966 -15.881243903539946 1 0 0
6440 1987 4 0 14.871745615515284 -13.653849542036077 -16.261563982335208 1 0 1
2379 633 4 0 16.503959733413087 -14.806988652287833 -16.415793570366606 1 0 0
568 114 3 0 -16.483809950338063 -12.535895483148936 -16.016230734871215 2 0 1
566 114 1 0 -16.4528647299966 -13.002126001082665 -16.314815130127883 2 0 1
567 114 3 0 -16.20026507273897 -13.343796026881243 -16.057037110842444 2 0 1
6635 2052 4 0 -16.33598041926641 -12.197352222344573 -16.103893074667127 2 0 1
131 27 1 0 -15.579906730088974 -12.282218453784676 -16.45695542305688 2 0 0
132 27 3 0 -15.930952643975857 -12.279232078541165 -16.110953753518626 2 0 0
134 27 3 0 -15.133247659262507 -12.410372031982378 -16.2329802967072 2 0 0
6624 2048 4 0 -14.497505606164921 -13.529686732742139 -16.15886875791195 2 0 1
6622 2048 2 0 -14.331308744255889 -13.067260839273064 -15.929407030390548 2 0 1
6623 2048 4 0 -14.155726858161751 -12.628412195006627 -15.70994523719875 2 0 1
7857 2459 4 0 -13.906372326684048 -12.64958899947302 -15.389941422002472 2 0 1
7770 2430 4 0 -13.75376114076477 -12.577476874560668 -15.742225927700263 2 0 1
7855 2459 2 0 -13.73337994894243 -13.00877868712053 -15.047731551641945 2 0 1
7401 2307 4 0 -12.247820511022756 -13.583494677289789 -16.373763674785458 2 0 1
7768 2430 2 0 -13.374656785450068 -12.562131883962333 -16.093172171094622 2 0 1
7769 2430 4 0 -12.991466372720604 -12.556297186461954 -16.43326506271939 2 0 1
7399 2307 2 0 -12.511339806911813 -13.148934767039576 -16.52898665750232 2 0 1
9888 3136 4 0 -4.813201076304658 -16.57536969420202 -5.778932238016184 10 1 0
2548 690 2 0 -11.349679246901754 -13.296551332379941 -15.036328976874545 2 0 0
14986 4836 2 0 1.3242771962600486 -13.198558694167163 -16.528624549200476 10 1 1
14987 4836 4 0 1.6461582103570507 -13.077717366571264 -16.16665684686175 10 1 1
14466 4662 4 0 1.7643504125796738 -12.686845901435696 -16.10626129066092 10 1 1
10133 3218 4 0 1.8570080074416673 -12.966333549129304 -15.837649132422357 10 1 0
14464 4662 2 0 1.8010671640573612 -12.252342063822592 -16.2858742096619 10 1 1
9195 2905 4 0 2.024901962968059 -12.964214017553678 -16.192615108630235 10 1 0
10132 3218 2 0 2.1058690422473276 -12.855438660628982 -15.419770172489905 10 1 0
9193 2905 2 0 2.4056419001526343 -13.156836503030666 -16.449952812338537 10 1 0
2787 769 4 0 5.353092713535659 -12.281014012534964 -15.598603813557164 0 0 0
13767 4429 4 0 5.400932586795882 -12.373033046748425 -15.972588882485224 10 1 1
14357 4626 4 0 5.69094168626701 -12.433156270800858 -15.735186208550482 10 1 1
14356 4626 2 0 5.714815345775218 -12.891820727616786 -15.510401747492052 10 1 1
14358 4626 4 0 5.74370035215426 -13.34081190116765 -15.270993552264187 10 1 1
2344 622 2 0 7.119453132345264 -13.440235777058355 -15.217490298064035 0 0 0
1669 397 2 0 6.915752949027336 -12.834059271160466 -16.318443208359838 0 0 0
2258 593 4 0 7.019042145597911 -12.746851201799299 -15.40210413025643 0 0 0
1671 397 4 0 7.059856927341251 -12.829766494110153 -15.803505478934996 0 0 0
2346 622 4 0 7.2279748065187555 -13.072071735010512 -15.52592233202083 0 0 0
1478 333 4 0 7.389889155811769 -12.719646488336455 -15.60758274218885 0 0 0
2257 593 2 0 6.840664702748196 -12.412176114803602 -15.04515654429904 0 0 0
1477 333 2 0 7.839266177506364 -12.638241627565984 -15.466668130168589 0 0 0
1479 333 4 0 8.308436886255588 -12.550869354677372 -15.302537412859962 0 0 0
3152 891 4 0 10.00943146660033 -13.264277396581164 -15.295070423801109 0 0 0
3590 1037 4 0 10.100601705495873 -13.138975468781828 -15.648428798115878 0 0 0
3589 1037 2 0 10.09561453781814 -13.016764358741302 -16.14683848269414 0 0 0
3515 1012 4 0 11.678169154258534 -12.91406038318135 -15.346899052652997 1 0 0
3162 894 4 0 11.600017520520005 -12.621582444867771 -15.107152282607712 1 0 0
3581 1034 4 0 11.956478288360312 -12.805393038064272 -15.071895596114187 1 0 0
3160 894 2 0 11.459313705653663 -12.091243743914234 -15.143757993719545 1 0 0
3514 1012 2 0 11.548620998107314 -13.289870907643303 -15.026982286114952 1 0 0
2031 517 4 0 12.868919333247852 -13.074261801693513 -15.30759243943815 1 0 0
8119 2547 2 0 12.998906229253812 -12.560883670899127 -15.961882386574286 1 0 1
8120 2547 4 0 13.053754809268046 -12.996205189917161 -15.667555672587389 1 0 1
13 3 3 0 13.19247665665257 -12.810984144889087 -15.351212916827748 1 0 0
2029 517 2 0 13.070237650137429 -13.501885090806514 -15.174214498282348 1 0 0
8121 2547 4 0 12.950643550751192 -12.138394102783105 -16.261502736878164 1 0 1
2262 594 4 0 14.548096333439087 -13.48265489305353 -16.057434673753267 1 0 0
2260 594 2 0 14.458226863452374 -13.024641789979025 -16.30623783548375 1 0 0
3178 900 2 0 14.990464326830434 -13.494390342438907 -15.420268657313798 1 0 0
15 3 3 0 13.758690644265624 -12.168676820603562 -15.257520954347678 1 0 0
6139 1887 2 0 15.082675187646622 -12.42555971755577 -15.220013794012209 1 0 1
6140 1887 4 0 15.161160756498251 -12.892696329233262 -15.05485689976456 1 0 1
2261 594 4 0 14.388662412693446 -12.603316888304722 -16.542385868784542 1 0 0
6439 1987 2 0 15.403181520702166 -13.479261217876752 -16.377707151538807 1 0 1
570 114 3 0 16.245538456186193 -13.19481606100419 -16.397768831716036 1 0 1
8339 2620 4 0 15.922264240515847 -12.939893905983995 -16.364040449394786 1 0 1
6441 1987 4 0 15.882283787804855 -13.323031861437345 -16.47865858389856 1 0 1
8338 2620 2 0 15.759637694305464 -12.492217267377713 -16.180622775589455 1 0 1
3179 900 4 0 15.179053753586107 -13.290441682339697 -14.994900233424662 1 0 0
9711 3077 4 0 2.003048430209887 -16.536027976441684 -8.122064904410566 10 1 0
6634 2052 2 0 16.594086222293956 -11.77499312913756 -16.105074693657848 1 0 1
1348 290 2 0 -15.304167780018599 -10.56748933449082 -16.435964698971475 2 0 0
8492 2671 4 0 -14.172998311624465 -11.181806589956407 -15.353666072232112 2 0 0
9518 3013 4 0 -13.93382857830115 -11.050269222160967 -15.643437585633169 2 0 0
9138 2886 4 0 -13.790125634405795 -11.137712514826367 -15.294597376607346 2 0 0
9517 3013 2 0 -13.933827816758372 -11.171942499715275 -16.126079336164015 2 0 0
8491 2671 2 0 -14.6566489512206 -11.296727204490104 -15.227807728859947 2 0 0
9753 3091 4 0 0.35909394961139185 -16.3801334349708 -7.125971154723189 10 1 0
9136 2886 2 0 -13.610083528025113 -10.640630338188782 -15.263028564136073 2 0 0
14465 4662 4 0 1.8514324172055154 -11.776695936805659 -16.477113655387324 10 1 1
15322 4948 2 0 2.032387631022626 -11.006625271752132 -16.21647006784948 10 1 1
15324 4948 4 0 2.087164278044984 -10.628616769855906 -15.882706382389543 10 1 1
10108 3210 2 0 1.9927439803303315 -10.85317001149307 -15.105740900159704 10 1 0
13450 4324 2 0 3.943062749697553 -10.855841805367602 -16.004480810511737 10 1 1
13451 4324 4 0 3.79772901711204 -10.587197908906782 -15.594287425207321 10 1 1
13452 4324 4 0 4.083255464374549 -11.120408626976271 -16.430037320096705 10 1 1
13765 4429 2 0 5.4285330576259305 -11.957316547255594 -16.305702313950704 10 1 1
2785 769 2 0 5.3505553286323995 -11.943718980069894 -15.202700467679648 0 0 0
8170 2564 2 0 5.857738888975003 -10.953042059872129 -16.214139330013627 0 0 1
1390 304 2 0 5.738681792987872 -10.899095954359902 -15.1275845618778 0 0 0
1392 304 4 0 5.986526839136424 -10.568762868404049 -15.451327413443988 0 0 0
2713 745 2 0 9.37326905321066 -16.58661961098252 -9.48153471965204 0 0 0
8172 2564 4 0 6.08122104779396 -10.728557324651483 -15.794607424528676 0 0 1
10643 3388 4 0 6.37325081331495 -10.67505125631076 -15.502311573002906 10 1 0
10642 3388 2 0 6.775360151622824 -10.66090260546324 -15.14744097110126 10 1 0
2656 726 2 0 9.896673091648555 -11.204696099395514 -16.4203353595514 1 0 0
10453 3325 2 0 10.036050683324689 -11.69350890190282 -15.439087523848686 1 0 0
2657 726 4 0 10.215546880279447 -11.418568459970036 -16.084239229292752 1 0 0
10455 3325 4 0 10.405247525169518 -11.59119283856901 -15.778703227141104 1 0 0
114 23 3 0 10.560754959341292 -11.277609374856882 -15.950780467456761 1 0 0
113 23 3 0 10.661165069957516 -10.694098014349004 -15.373318562010747 1 0 0
111 23 1 0 10.90608622070453 -11.011948867111322 -15.692976138000258 1 0 0
115 23 3 0 11.185067812701334 -11.312631069503135 -15.438081331469645 1 0 0
2610 710 4 0 11.513015561271562 -11.253532682980719 -15.219200338132282 1 0 0
112 23 3 0 11.173995457234447 -10.751063472918075 -16.00310622053006 1 0 0
3161 894 4 0 11.32258457896041 -11.6038603614362 -15.176670610443983 1 0 0
1419 313 4 0 11.5601844281694 -10.608849466241136 -16.00678601366682 1 0 0
2608 710 2 0 12.013760450469334 -11.180833026145171 -15.13657521688573 1 0 0
7680 2400 4 0 12.849476624971718 -11.226532386170724 -15.244622020969313 1 0 1
7678 2400 2 0 12.924699667854398 -11.526133282600966 -15.676636994875993 1 0 1
7679 2400 4 0 13.000343818116477 -11.804746128820508 -16.087392024342932 1 0 1
503 101 3 0 13.206973312805655 -11.893330507369688 -16.434026023741993 1 0 1
2744 755 4 0 12.812422100044365 -10.885200849594549 -15.04732637473312 1 0 0
7234 2252 2 0 12.935287407801813 -10.617901732329319 -16.463388400287045 1 0 1
2609 710 4 0 12.500773972342895 -11.11508049242337 -15.048476698037845 1 0 0
8208 2576 4 0 14.930889193911604 -11.58808936789652 -15.452125253990697 1 0 1
8206 2576 2 0 14.642837654371949 -11.182738272434614 -15.602979033065962 1 0 1
8207 2576 4 0 14.390008053419567 -10.787668573610327 -15.748603555413803 1 0 1
8322 2614 4 0 14.873297024694246 -11.762817792611393 -15.09652126882989 1 0 1
8340 2620 4 0 15.627060060197298 -12.068575857169519 -16.00576591038882 1 0 1
6141 1887 4 0 14.991323730008983 -11.972873141352455 -15.397268405354936 1 0 1
2884 802 2 0 16.42280433339071 -10.732350313556365 -15.655756913348204 1 0 0
6636 2052 4 0 16.31525531154311 -11.326910602190498 -16.103300732552395 1 0 1
7544 2355 4 0 15.243659350393827 -11.730630182911126 -15.280851621995255 1 0 1
2886 802 4 0 16.15800336531171 -11.003837357405208 -15.981472629508895 1 0 0
8013 2511 4 0 15.944841571907258 -11.245630407098187 -16.178817360854698 1 0 1
7545 2355 4 0 16.054767956966653 -11.380567189965422 -15.823180966677171 1 0 1
7543 2355 2 0 15.660611815964185 -11.547418518460775 -15.559177235386842 1 0 1
1619 380 4 0 16.574186273545028 -10.089144637186724 -15.190833351564764 1 0 0
2885 802 4 0 -16.498522203506447 -10.458628296768408 -15.312871705188954 2 0 0
2541 687 4 0 -16.234619742628322 -10.18927731309565 -15.184341418765884 2 0 0
2539 687 2 0 -15.885258378724663 -10.085388162189812 -15.577088132371799 2 0 0
2540 687 4 0 -15.541313404223057 -9.97811433100997 -15.98793670639374 2 0 0
1622 381 4 0 -15.509862170153882 -9.790049899937577 -16.35632163506581 2 0 0
3613 1045 2 0 -15.365287771235362 -9.180529493497747 -15.949208083420377 2 0 0
3615 1045 4 0 -15.285302563606397 -9.696215283236803 -16.07341559716179 2 0 0
1350 290 4 0 -15.271096681145682 -10.064219040030272 -16.25350221126198 2 0 0
2016 512 4 0 -15.110955414778397 -9.752411917300405 -16.41786097344682 2 0 0
2014 512 2 0 -14.620152301541339 -9.675000356441604 -16.564497019871645 2 0 0
1934 485 4 0 -13.857815132727808 -9.576270146440711 -16.432660490069477 2 0 0
1933 485 2 0 -13.671119527926647 -9.82353466016304 -16.000760064675912 2 0 0
9137 2886 4 0 -13.429183439240314 -10.177806488405459 -15.236682775407036 2 0 0
1935 485 4 0 -13.489444398057966 -10.035281043051263 -15.605975535926081 2 0 0
3467 996 4 0 -13.15693206199067 -9.927935696662317 -15.400137135737914 2 0 0
3466 996 2 0 -12.81615960560114 -9.600834265972646 -15.208892999385696 2 0 0
3468 996 4 0 -12.484877344153261 -9.27859155119475 -15.02441348219041 2 0 0
10109 3210 4 0 2.063923458455669 -10.556316905245636 -15.519849382635062 10 1 0
9657 3059 4 0 2.3893832902746155 -10.47112211700264 -15.756533872341162 10 1 0
9655 3059 2 0 2.903265908471507 -10.526257545969646 -15.721664519460697 10 1 0
10100 3207 4 0 1.9034805864298932 -9.449373021454326 -16.38915002533089 10 1 0
9768 3096 4 0 1.9786466873258277 -9.077719091825246 -16.189767514160177 10 1 0
10099 3207 2 0 1.9856323383527972 -9.842283336375797 -16.08115296209968 10 1 0
10101 3207 4 0 2.0687975642484666 -10.234986719128962 -15.777736733007567 10 1 0
13826 4449 4 0 1.7466113588837757 -9.094537027700644 -16.506257766278413 10 1 1
9656 3059 4 0 3.3832157232476696 -10.573452950397982 -15.68015749662434 10 1 0
10680 3400 4 0 3.55239421591725 -10.287961623500122 -15.493925017344589 10 1 0
10678 3400 2 0 3.734966636900676 -9.820422611872893 -15.525414546802692 10 1 0
10679 3400 4 0 3.9194511651110133 -9.352511466652514 -15.58188237385319 10 1 0
9741 3087 4 0 4.046097086844988 -9.254958385331182 -15.930775500341941 10 1 0
2327 616 4 0 6.226369953386236 -10.392113950891902 -15.710016212524245 0 0 0
2326 616 2 0 6.523186891019915 -10.101146581834577 -16.05317969697264 0 0 0
2328 616 4 0 6.78989469908289 -9.837230389901773 -16.35268644136129 0 0 0
7808 2443 4 0 7.123500357273986 -9.933931017209822 -16.139921742289015 1 0 1
9105 2875 4 0 6.965900729404307 -10.181604060742604 -16.406565998303765 10 1 0
7807 2443 2 0 7.507313453209733 -9.614131224494285 -16.18844765570198 1 0 1
7809 2443 4 0 7.886814681743875 -9.300671726410568 -16.23932558974741 1 0 1
2997 839 4 0 8.243614825127803 -9.334485717397294 -16.089488450047003 1 0 0
2995 839 2 0 8.702342702403776 -9.467544486617784 -15.903513779611888 1 0 0
7568 2363 4 0 8.211064090050172 -9.430553915727359 -16.496975044881598 1 0 1
2996 839 4 0 9.159839070171863 -9.593839063468648 -15.715472039464498 1 0 0
1547 356 4 0 9.241167861630867 -9.900414422330957 -15.92646283808137 0 0 0
1546 356 2 0 9.358521947011287 -10.225815352339112 -16.296412820459263 0 0 0
1262 261 4 0 9.55221652576654 -9.641766983367258 -15.807700803501094 0 0 0
1261 261 2 0 9.833899036031756 -9.271987880477386 -16.0452293630308 0 0 0
2479 667 2 0 11.079602670146759 -10.156359030386625 -16.38391424702617 1 0 0
2481 667 4 0 11.234622983561454 -10.361936138144479 -15.960098776919947 1 0 0
1417 313 2 0 12.015355808835277 -10.39700987160889 -15.96503946019634 1 0 0
2743 755 2 0 12.850806389501006 -10.506565794568788 -15.345856061424199 1 0 0
7891 2471 2 0 13.375621595959213 -9.28135316251746 -15.724689525148083 1 0 1
7892 2471 4 0 13.03249093352538 -9.72259526858778 -15.73777401422476 1 0 1
7827 2449 4 0 13.193339271121125 -10.054103970648356 -15.894110351576408 1 0 1
1474 332 2 0 12.311101998147123 -9.560636545035331 -15.33918827049232 1 0 0
1418 313 4 0 12.54515717922229 -10.133082047962663 -15.905533708202546 1 0 0
3391 971 2 0 12.61884313046005 -9.618544776247852 -16.39924222308025 1 0 0
1475 332 4 0 12.645699973450245 -9.787576659755125 -15.702880003555357 1 0 0
3392 971 4 0 12.837539109656408 -9.918673819702768 -16.01866779162341 1 0 0
7236 2252 4 0 12.908948055531543 -10.285646334435121 -16.03355698697314 1 0 1
2745 755 4 0 12.882708749575272 -10.081267998796143 -15.679752993212839 1 0 0
1476 332 4 0 11.986204886526817 -9.34435586185339 -15.00843362171536 1 0 0
6681 2067 4 0 14.621176341209491 -10.469274581175208 -15.683657689643312 1 0 1
7934 2485 4 0 14.359615080999355 -10.587262097939943 -15.422220357816984 1 0 1
7826 2449 4 0 14.232965872385506 -10.435918245282918 -15.803073958641889 1 0 1
6048 1856 4 0 14.712625383465724 -9.518974178107316 -16.32472069137638 1 0 1
6679 2067 2 0 14.787607475858767 -10.158619421038168 -16.003731022939967 1 0 1
6046 1856 2 0 14.361598398567676 -9.177299944539406 -16.139953461036843 1 0 1
7825 2449 2 0 13.732096344561452 -10.250603342073617 -15.848919798455643 1 0 1
49 10 3 0 10.90856772010217 -16.57220207475677 -12.532733745475603 1 0 0
6680 2067 4 0 14.969848772842159 -9.8279107290699 -16.341791695688368 1 0 1
1618 380 2 0 16.35852277753271 -9.656235850814866 -15.462392453195717 1 0 0
1620 380 4 0 16.16449672045717 -9.243229084175812 -15.72469192990485 1 0 0
3366 962 4 0 16.14303403194968 -9.191711809584326 -16.10421530373012 1 0 0
3364 962 2 0 16.306804326052163 -9.396115347984209 -16.504793347037545 1 0 0
10357 3293 2 0 -16.316992405498755 -8.757434391344445 -15.86464986078587 2 0 0
10358 3293 4 0 -15.853671522458294 -8.567302713824665 -15.837323598165565 2 0 0
8577 2699 4 0 -15.567727079729982 -8.310515021505964 -15.857784127269666 2 0 0
3614 1045 4 0 -15.45543587070114 -8.696637105984335 -15.849935710607744 2 0 0
8575 2699 2 0 -15.551677202166324 -8.111958018424774 -16.337888382518408 2 0 0
3294 938 4 0 -12.35327886601819 -9.021946817946413 -15.300053917666046 2 0 0
9626 3049 4 0 -12.758150680128372 -7.701895647969746 -15.386137053114366 2 0 0
3292 938 2 0 -11.988594009620652 -8.980945619767256 -15.633442736574995 2 0 0
3293 938 4 0 -11.622978983393205 -8.934681077636258 -15.97611873653549 2 0 0
1587 369 4 0 -11.34746888533224 -8.643249360244768 -16.062998066282333 2 0 0
2337 619 4 0 -11.58121348866754 -8.801969249473625 -16.342037002397102 2 0 0
1585 369 2 0 -10.945668667320174 -8.320921336516223 -16.135329780147135 2 0 0
1586 369 4 0 -10.564768979191504 -8.017017196531453 -16.199232044660913 2 0 0
9766 3096 2 0 2.2928038122568317 -8.704551550825242 -16.17855330101247 10 1 0
9767 3096 4 0 2.611390838693847 -8.337226137728901 -16.16368596573256 10 1 0
13671 4397 4 0 2.8407705729847095 -8.33742458161757 -16.45646701452526 10 1 1
9186 2902 4 0 3.0146820224647186 -8.419275898831579 -16.113728658085996 10 1 0
9739 3087 2 0 4.266883776065601 -9.110302250205063 -16.36831146862974 10 1 0
9185 2902 4 0 3.72838755492819 -9.052758690916146 -15.734522802027573 10 1 0
9184 2902 2 0 3.365461775828976 -8.739749675513398 -15.928093625857143 10 1 0
2918 813 4 0 12.622425543545056 -16.520260720814658 -15.637487386145866 1 0 0
7242 2254 4 0 8.140813438592001 -9.071238493127307 -16.383937241848066 1 0 1
10831 3451 2 0 0.14276672689710423 -7.328966195039765 -6.621957165724709 2 0 0
2242 588 2 0 9.85939981943817 -8.161837290791588 -15.798448048621374 0 0 0
2243 588 4 0 9.968433948889217 -8.530243486440641 -16.200635784597697 0 0 0
1263 261 4 0 10.108121733245067 -8.887550521361645 -16.28246388756661 0 0 0
2244 588 4 0 9.757962077923857 -7.819546730959599 -15.450987645721334 0 0 0
2250 590 4 0 10.209342465215787 -8.602042602673494 -16.515265999958626 1 0 0
7830 2450 4 0 9.849962995102935 -8.740238780325747 -16.526944018405356 1 0 1
2386 636 2 0 11.397288369181712 -7.9453735275659625 -16.19630090630241 1 0 0
2364 628 4 0 11.48307427302986 -8.441977198351712 -15.595105672226989 1 0 0
2362 628 2 0 11.535697401916593 -8.841654468901913 -15.276935796607672 1 0 0
2639 720 4 0 11.741823616723725 -8.61378149561014 -15.851320246144251 1 0 0
2388 636 4 0 11.657115659798556 -8.16900309128759 -15.810878965117922 1 0 0
2638 720 2 0 11.941769333897323 -8.826881256221018 -16.255815641709365 1 0 0
1451 324 4 0 11.87444544172531 -8.378760416993345 -15.572148582077293 1 0 0
2387 636 4 0 11.136167235122183 -7.728970558890687 -16.563519152575076 1 0 0
1450 324 2 0 12.20370889791441 -8.008915218699011 -15.472689876757759 1 0 0
2974 832 2 0 13.251744710439354 -7.603193567956058 -15.301591073823289 1 0 0
2976 832 4 0 12.854605708914857 -7.569093549210649 -15.59073896388945 1 0 0
1452 324 4 0 12.52575101225742 -7.6523639601465625 -15.385390054536856 1 0 0
1416 312 4 0 13.414879697885699 -7.930618011338016 -16.449136418305752 1 0 0
1414 312 2 0 13.653363928695644 -8.220444344987422 -16.121149968498926 1 0 0
7893 2471 4 0 13.699673392275361 -8.87487893862696 -15.704992197094167 1 0 1
7549 2357 2 0 14.7119520245388 -8.227839809139674 -15.871423479559992 1 0 1
7551 2357 4 0 14.287646910174264 -8.56837061383173 -15.829565315810088 1 0 1
2433 651 4 0 14.060572368077285 -8.790258972531838 -15.568903436719616 1 0 0
6047 1856 4 0 14.013293187369708 -8.835788148616725 -15.956755123397125 1 0 1